 Entering Gaussian System, Link 0=g16
 Initial command:
 /opt/shared/g16/l1.exe "/scratch/19356/Gau-23281.inp" -scrdir="/scratch/19356/"
 Entering Link 1 = /opt/shared/g16/l1.exe PID=     23282.
  
 Copyright (c) 1988-2017, Gaussian, Inc.  All Rights Reserved.
  
 This is part of the Gaussian(R) 16 program.  It is based on
 the Gaussian(R) 09 system (copyright 2009, Gaussian, Inc.),
 the Gaussian(R) 03 system (copyright 2003, Gaussian, Inc.),
 the Gaussian(R) 98 system (copyright 1998, Gaussian, Inc.),
 the Gaussian(R) 94 system (copyright 1995, Gaussian, Inc.),
 the Gaussian 92(TM) system (copyright 1992, Gaussian, Inc.),
 the Gaussian 90(TM) system (copyright 1990, Gaussian, Inc.),
 the Gaussian 88(TM) system (copyright 1988, Gaussian, Inc.),
 the Gaussian 86(TM) system (copyright 1986, Carnegie Mellon
 University), and the Gaussian 82(TM) system (copyright 1983,
 Carnegie Mellon University). Gaussian is a federally registered
 trademark of Gaussian, Inc.
  
 This software contains proprietary and confidential information,
 including trade secrets, belonging to Gaussian, Inc.
  
 This software is provided under written license and may be
 used, copied, transmitted, or stored only in accord with that
 written license.
  
 The following legend is applicable only to US Government
 contracts under FAR:
  
                    RESTRICTED RIGHTS LEGEND
  
 Use, reproduction and disclosure by the US Government is
 subject to restrictions as set forth in subparagraphs (a)
 and (c) of the Commercial Computer Software - Restricted
 Rights clause in FAR 52.227-19.
  
 Gaussian, Inc.
 340 Quinnipiac St., Bldg. 40, Wallingford CT 06492
  
  
 ---------------------------------------------------------------
 Warning -- This program may not be used in any manner that
 competes with the business of Gaussian, Inc. or will provide
 assistance to any competitor of Gaussian, Inc.  The licensee
 of this program is prohibited from giving any competitor of
 Gaussian, Inc. access to this program.  By using this program,
 the user acknowledges that Gaussian, Inc. is engaged in the
 business of creating and licensing software in the field of
 computational chemistry and represents and warrants to the
 licensee that it is not a competitor of Gaussian, Inc. and that
 it will not use this program in any manner prohibited above.
 ---------------------------------------------------------------
  

 Cite this work as:
 Gaussian 16, Revision B.01,
 M. J. Frisch, G. W. Trucks, H. B. Schlegel, G. E. Scuseria, 
 M. A. Robb, J. R. Cheeseman, G. Scalmani, V. Barone, 
 G. A. Petersson, H. Nakatsuji, X. Li, M. Caricato, A. V. Marenich, 
 J. Bloino, B. G. Janesko, R. Gomperts, B. Mennucci, H. P. Hratchian, 
 J. V. Ortiz, A. F. Izmaylov, J. L. Sonnenberg, D. Williams-Young, 
 F. Ding, F. Lipparini, F. Egidi, J. Goings, B. Peng, A. Petrone, 
 T. Henderson, D. Ranasinghe, V. G. Zakrzewski, J. Gao, N. Rega, 
 G. Zheng, W. Liang, M. Hada, M. Ehara, K. Toyota, R. Fukuda, 
 J. Hasegawa, M. Ishida, T. Nakajima, Y. Honda, O. Kitao, H. Nakai, 
 T. Vreven, K. Throssell, J. A. Montgomery, Jr., J. E. Peralta, 
 F. Ogliaro, M. J. Bearpark, J. J. Heyd, E. N. Brothers, K. N. Kudin, 
 V. N. Staroverov, T. A. Keith, R. Kobayashi, J. Normand, 
 K. Raghavachari, A. P. Rendell, J. C. Burant, S. S. Iyengar, 
 J. Tomasi, M. Cossi, J. M. Millam, M. Klene, C. Adamo, R. Cammi, 
 J. W. Ochterski, R. L. Martin, K. Morokuma, O. Farkas, 
 J. B. Foresman, and D. J. Fox, Gaussian, Inc., Wallingford CT, 2016.
 
 ******************************************
 Gaussian 16:  ES64L-G16RevB.01 20-Dec-2017
                22-Jan-2019 
 ******************************************
 %Nprocs =  1
 Will use up to    1 processors via shared memory.
 %Mem =  4GB
 %Chk =  test_irc.chk
 ----------------------------------------------------------------------
 # PBEPBE/def2svp scf=tight irc=(reverse, Maxcycle = 20, Stepsize = 5 ,
  Maxpoints = 50, CalcFC)
 ----------------------------------------------------------------------
 1/6=20,10=4,18=10,22=2,26=3,38=1,39=5,42=50,44=3,172=1/1,23;
 2/12=2,17=6,18=5,29=1,40=1/2;
 3/5=43,7=101,11=2,25=1,30=1,71=2,74=1009,140=1/1,2,3;
 4//1;
 5/5=2,32=2,38=5/2;
 8/6=4,10=90,11=11/1;
 11/6=1,8=1,9=11,15=111,16=1/1,2,10;
 10/6=1,13=1/2;
 6/7=2,8=2,9=2,10=2,28=1/1;
 7/10=1,18=20,25=1/1,2,3,16;
 1/6=20,10=4,18=10,22=2,26=3,39=5,42=50,44=3/23(2);
 2/29=1/2;
 99/5=20/99;
 2/29=1/2;
 3/5=43,7=101,11=2,25=1,30=1,71=2,74=1009,140=1/1,2,3;
 4/5=5,16=3,69=1/1;
 5/5=2,32=2,38=5/2;
 8/6=4,10=90,11=11/1;
 11/6=1,8=1,9=11,15=111,16=1/1,2,10;
 10/6=1,13=1/2;
 7/10=1,18=20,25=1/1,2,3,16;
 1/6=20,18=10,22=2,26=3,39=5,42=50,44=3/23(-8);
 2/29=1/2;
 6/7=2,8=2,9=2,10=2,19=2,28=1/1;
 99/5=20,9=1/99;
 ---------------------
 Gaussian Job test_irc
 ---------------------
 Symbolic Z-matrix:
 Charge =  0 Multiplicity = 1
 1                     0.97364  -0.67198   0. 
 16                   -0.69283  -0.67147   0. 
 7                     0.        0.84897   0. 
 8                     1.26395   0.68409   0. 
 
 IRC-IRC-IRC-IRC-IRC-IRC-IRC-IRC-IRC-IRC-IRC-IRC-IRC-IRC-IRC-IRC-IRC-IRC
 ------------------------------------------------------------------------
 INPUT DATA FOR L123
 ------------------------------------------------------------------------
 GENERAL PARAMETERS:
 Rxn path following direction = Reverse
 Maximum points per path      =  50
 Step size                    =   0.050 bohr
 Integration scheme           = HPC                                 
    Redo corrector integration= Yes                                 
    DWI Weight Power          =  2
    DWI will use Hessian update vectors when possible.
    Max correction cycles     =  20
 Initial Hessian              = CalcFC
 Hessian evaluation           = All updating
 Hessian updating method      = Bofill                              
 ------------------------------------------------------------------------
 IRC-IRC-IRC-IRC-IRC-IRC-IRC-IRC-IRC-IRC-IRC-IRC-IRC-IRC-IRC-IRC-IRC-IRC
                          Input orientation:                          
 ---------------------------------------------------------------------
 Center     Atomic      Atomic             Coordinates (Angstroms)
 Number     Number       Type             X           Y           Z
 ---------------------------------------------------------------------
      1          1           0        0.973640   -0.671980    0.000000
      2         16           0       -0.692830   -0.671470    0.000000
      3          7           0        0.000000    0.848970    0.000000
      4          8           0        1.263950    0.684090    0.000000
 ---------------------------------------------------------------------
                    Distance matrix (angstroms):
                    1          2          3          4
     1  H    0.000000
     2  S    1.666470   0.000000
     3  N    1.805897   1.670853   0.000000
     4  O    1.386797   2.380448   1.274659   0.000000
 Symmetry turned off by external request.
 Stoichiometry    HNOS
 Framework group  CS[SG(HNOS)]
 Deg. of freedom     5
 Full point group                 CS      NOp   2
 Rotational constants (GHZ):          58.1225416           7.7054894           6.8035246
 Standard basis: def2SVP (5D, 7F)
    51 basis functions,    94 primitive gaussians,    54 cartesian basis functions
    16 alpha electrons       16 beta electrons
       nuclear repulsion energy        97.3592665809 Hartrees.
 NAtoms=    4 NActive=    4 NUniq=    4 SFac= 1.00D+00 NAtFMM=   60 NAOKFM=F Big=F
 Integral buffers will be    131072 words long.
 Raffenetti 2 integral format.
 Two-electron integral symmetry is turned off.
 One-electron integrals computed using PRISM.
   1 Symmetry operations used in ECPInt.
 ECPInt:  NShTT=     276 NPrTT=    1180 LenC2=     276 LenP2D=    1018.
 LDataN:  DoStor=T MaxTD1= 4 Len=   56
 NBasis=    51 RedAO= T EigKep=  1.01D-02  NBF=    51
 NBsUse=    51 1.00D-06 EigRej= -1.00D+00 NBFU=    51
 ExpMin= 1.22D-01 ExpMax= 9.18D+03 ExpMxC= 1.38D+03 IAcc=3 IRadAn=         5 AccDes= 0.00D+00
 Harris functional with IExCor= 1009 and IRadAn=       5 diagonalized for initial guess.
 HarFok:  IExCor= 1009 AccDes= 0.00D+00 IRadAn=         5 IDoV= 1 UseB2=F ITyADJ=14
 ICtDFT=  3500011 ScaDFX=  1.000000  1.000000  1.000000  1.000000
 FoFCou: FMM=F IPFlag=           0 FMFlag=      100000 FMFlg1=           0
         NFxFlg=           0 DoJE=T BraDBF=F KetDBF=T FulRan=T
         wScrn=  0.000000 ICntrl=       500 IOpCl=  0 I1Cent=   200000004 NGrid=           0
         NMat0=    1 NMatS0=      1 NMatT0=    0 NMatD0=    1 NMtDS0=    0 NMtDT0=    0
 Symmetry not used in FoFCou.
 Keep J ints in memory in canonical form, NReq=1757006.
 Requested convergence on RMS density matrix=1.00D-08 within 128 cycles.
 Requested convergence on MAX density matrix=1.00D-06.
 Requested convergence on             energy=1.00D-06.
 No special actions if energy rises.
 Integral accuracy reduced to 1.0D-05 until final iterations.
 EnCoef did     5 forward-backward iterations
 Initial convergence to 1.0D-05 achieved.  Increase integral accuracy.
 SCF Done:  E(RPBE-PBE) =  -528.119754261     A.U. after   15 cycles
            NFock= 15  Conv=0.56D-08     -V/T= 2.0028
 DoSCS=F DFT=T ScalE2(SS,OS)=  1.000000  1.000000
 Range of M.O.s used for correlation:     1    51
 NBasis=    51 NAE=    16 NBE=    16 NFC=     0 NFV=     0
 NROrb=     51 NOA=    16 NOB=    16 NVA=    35 NVB=    35

 **** Warning!!: The smallest alpha delta epsilon is  0.90933150D-01

   1 Symmetry operations used in ECPInt.
 ECPInt:  NShTT=     276 NPrTT=    1180 LenC2=     276 LenP2D=    1018.
 LDataN:  DoStor=T MaxTD1= 5 Len=  102
 Symmetrizing basis deriv contribution to polar:
 IMax=3 JMax=2 DiffMx= 0.00D+00
 G2DrvN: will do     5 centers at a time, making    1 passes.
 Calling FoFCou, ICntrl=  3507 FMM=F I1Cent=   0 AccDes= 0.00D+00.
 End of G2Drv F.D. properties file   721 does not exist.
 End of G2Drv F.D. properties file   722 does not exist.
 End of G2Drv F.D. properties file   788 does not exist.
          IDoAtm=1111
          Differentiating once with respect to nuclear coordinates.
 Keep J ints in memory in canonical form, NReq=1757295.
          There are    15 degrees of freedom in the 1st order CPHF.  IDoFFX=6 NUNeed=     0.
      9 vectors produced by pass  0 Test12= 3.73D-15 6.67D-09 XBig12= 1.39D-01 2.61D-01.
 AX will form     9 AO Fock derivatives at one time.
      9 vectors produced by pass  1 Test12= 3.73D-15 6.67D-09 XBig12= 3.28D-01 2.40D-01.
      9 vectors produced by pass  2 Test12= 3.73D-15 6.67D-09 XBig12= 5.85D-03 2.86D-02.
      9 vectors produced by pass  3 Test12= 3.73D-15 6.67D-09 XBig12= 1.47D-04 3.43D-03.
      9 vectors produced by pass  4 Test12= 3.73D-15 6.67D-09 XBig12= 4.25D-07 1.79D-04.
      9 vectors produced by pass  5 Test12= 3.73D-15 6.67D-09 XBig12= 4.31D-10 5.52D-06.
      3 vectors produced by pass  6 Test12= 3.73D-15 6.67D-09 XBig12= 2.18D-13 1.44D-07.
 InvSVY:  IOpt=1 It=  1 EMax= 6.66D-16
 Solved reduced A of dimension    57 with     9 vectors.
 End of Minotr F.D. properties file   721 does not exist.
 End of Minotr F.D. properties file   722 does not exist.
 End of Minotr F.D. properties file   788 does not exist.

 **********************************************************************

            Population analysis using the SCF Density.

 **********************************************************************

 Alpha  occ. eigenvalues --  -88.07453 -18.84084 -14.12584  -7.72101  -5.75003
 Alpha  occ. eigenvalues --   -5.74171  -5.74086  -1.06946  -0.75528  -0.58342
 Alpha  occ. eigenvalues --   -0.45747  -0.43636  -0.43030  -0.28624  -0.26643
 Alpha  occ. eigenvalues --   -0.24237
 Alpha virt. eigenvalues --   -0.15143  -0.07835   0.05313   0.16789   0.30362
 Alpha virt. eigenvalues --    0.33890   0.50994   0.52853   0.55207   0.57320
 Alpha virt. eigenvalues --    0.58446   0.60355   0.61548   0.73443   0.75402
 Alpha virt. eigenvalues --    0.76628   0.84171   0.87493   0.89460   0.99080
 Alpha virt. eigenvalues --    1.05408   1.25527   1.38976   1.60258   1.73177
 Alpha virt. eigenvalues --    1.79978   1.98004   2.04293   2.35082   2.48600
 Alpha virt. eigenvalues --    2.54961   2.87570   2.95693   3.09548   3.45475
          Condensed to atoms (all electrons):
               1          2          3          4
     1  H    0.626649   0.146974  -0.043225   0.123108
     2  S    0.146974  15.714928   0.268535  -0.196980
     3  N   -0.043225   0.268535   6.590488   0.230936
     4  O    0.123108  -0.196980   0.230936   8.009239
 Mulliken charges:
               1
     1  H    0.146493
     2  S    0.066543
     3  N   -0.046734
     4  O   -0.166303
 Sum of Mulliken charges =  -0.00000
 Mulliken charges with hydrogens summed into heavy atoms:
               1
     2  S    0.066543
     3  N   -0.046734
     4  O   -0.019809
 APT charges:
               1
     1  H    0.091206
     2  S    0.135709
     3  N   -0.207055
     4  O   -0.019860
 Sum of APT charges =  -0.00000
 APT charges with hydrogens summed into heavy atoms:
               1
     2  S    0.135709
     3  N   -0.207055
     4  O    0.071346
 Electronic spatial extent (au):  <R**2>=            189.7264
 Charge=             -0.0000 electrons
 Dipole moment (field-independent basis, Debye):
    X=             -0.0814    Y=             -1.5063    Z=              0.0000  Tot=              1.5085
 Quadrupole moment (field-independent basis, Debye-Ang):
   XX=            -25.0791   YY=            -24.5361   ZZ=            -23.7080
   XY=             -0.7504   XZ=             -0.0000   YZ=              0.0000
 Traceless Quadrupole moment (field-independent basis, Debye-Ang):
   XX=             -0.6381   YY=             -0.0950   ZZ=              0.7331
   XY=             -0.7504   XZ=             -0.0000   YZ=              0.0000
 Octapole moment (field-independent basis, Debye-Ang**2):
  XXX=              2.8725  YYY=             -1.8881  ZZZ=              0.0000  XYY=              0.4660
  XXY=             -1.1465  XXZ=              0.0000  XZZ=              1.8306  YZZ=              1.4821
  YYZ=              0.0000  XYZ=              0.0000
 Hexadecapole moment (field-independent basis, Debye-Ang**3):
 XXXX=           -118.2055 YYYY=            -97.3951 ZZZZ=            -23.5697 XXXY=            -32.6723
 XXXZ=             -0.0000 YYYX=            -26.2827 YYYZ=              0.0000 ZZZX=             -0.0000
 ZZZY=              0.0000 XXYY=            -35.9087 XXZZ=            -23.1753 YYZZ=            -20.1801
 XXYZ=              0.0000 YYXZ=             -0.0000 ZZXY=             -9.6480
 N-N= 9.735926658093D+01 E-N=-1.447360336744D+03  KE= 5.266200630511D+02
  Exact polarizability:   0.000   0.000   0.000   0.000   0.000   0.000
 Approx polarizability: 113.810  51.669  92.909  -0.000   0.000  23.331
   1 Symmetry operations used in ECPInt.
 ECPInt:  NShTT=     276 NPrTT=    1180 LenC2=     276 LenP2D=    1018.
 LDataN:  DoStor=T MaxTD1= 6 Len=  172
 Calling FoFJK, ICntrl=    100547 FMM=F ISym2X=0 I1Cent= 0 IOpClX= 0 NMat=1 NMatS=1 NMatT=0.
 -------------------------------------------------------------------
 Center     Atomic                   Forces (Hartrees/Bohr)
 Number     Number              X              Y              Z
 -------------------------------------------------------------------
      1        1           0.000757374    0.000898201    0.000000000
      2       16          -0.001070662    0.000374415   -0.000000000
      3        7           0.008221745   -0.002194209    0.000000000
      4        8          -0.007908457    0.000921593    0.000000000
 -------------------------------------------------------------------
 Cartesian Forces:  Max     0.008221745 RMS     0.003396954
 IRC-IRC-IRC-IRC-IRC-IRC-IRC-IRC-IRC-IRC-IRC-IRC-IRC-IRC-IRC-IRC-IRC-IRC
          ******** Start new reaction path calculation ********
 Supplied step size of   0.0500 bohr.
    Integration on MW PES will use step size of   0.0523 sqrt(amu)*bohr.
 Point Number:   0          Path Number:   1
 Calculating another point on the path.
 IRC-IRC-IRC-IRC-IRC-IRC-IRC-IRC-IRC-IRC-IRC-IRC-IRC-IRC-IRC-IRC-IRC-IRC
                          Input orientation:                          
 ---------------------------------------------------------------------
 Center     Atomic      Atomic             Coordinates (Angstroms)
 Number     Number       Type             X           Y           Z
 ---------------------------------------------------------------------
      1          1           0        1.006705   -0.663496   -0.000000
      2         16           0       -0.677998   -0.682021    0.000000
      3          7           0        0.013939    0.837447   -0.000000
      4          8           0        1.279608    0.671931    0.000000
 ---------------------------------------------------------------------
                    Distance matrix (angstroms):
                    1          2          3          4
     1  H    0.000000
     2  S    1.684805   0.000000
     3  N    1.799560   1.669599   0.000000
     4  O    1.363027   2.380212   1.276446   0.000000
 Symmetry turned off by external request.
 Stoichiometry    HNOS
 Framework group  CS[SG(HNOS)]
 Deg. of freedom     5
 Full point group                 CS      NOp   2
 Rotational constants (GHZ):          58.0677652           7.7079934           6.8047250
 Standard basis: def2SVP (5D, 7F)
    51 basis functions,    94 primitive gaussians,    54 cartesian basis functions
    16 alpha electrons       16 beta electrons
       nuclear repulsion energy        97.3613556970 Hartrees.
 NAtoms=    4 NActive=    4 NUniq=    4 SFac= 1.00D+00 NAtFMM=   60 NAOKFM=F Big=F
 Integral buffers will be    131072 words long.
 Raffenetti 2 integral format.
 Two-electron integral symmetry is turned off.
 One-electron integrals computed using PRISM.
   1 Symmetry operations used in ECPInt.
 ECPInt:  NShTT=     276 NPrTT=    1180 LenC2=     276 LenP2D=    1019.
 LDataN:  DoStor=T MaxTD1= 4 Len=   56
 NBasis=    51 RedAO= T EigKep=  1.01D-02  NBF=    51
 NBsUse=    51 1.00D-06 EigRej= -1.00D+00 NBFU=    51
 Initial guess from the checkpoint file:  "test_irc.chk"
 B after Tr=     0.029126   -0.019976   -0.000000
         Rot=    1.000000    0.000000    0.000000   -0.000202 Ang=  -0.02 deg.
 ExpMin= 1.22D-01 ExpMax= 9.18D+03 ExpMxC= 1.38D+03 IAcc=3 IRadAn=         5 AccDes= 0.00D+00
 Harris functional with IExCor= 1009 and IRadAn=       5 diagonalized for initial guess.
 HarFok:  IExCor= 1009 AccDes= 0.00D+00 IRadAn=         5 IDoV= 1 UseB2=F ITyADJ=14
 ICtDFT=  3500011 ScaDFX=  1.000000  1.000000  1.000000  1.000000
 FoFCou: FMM=F IPFlag=           0 FMFlag=      100000 FMFlg1=           0
         NFxFlg=           0 DoJE=T BraDBF=F KetDBF=T FulRan=T
         wScrn=  0.000000 ICntrl=       500 IOpCl=  0 I1Cent=   200000004 NGrid=           0
         NMat0=    1 NMatS0=      1 NMatT0=    0 NMatD0=    1 NMtDS0=    0 NMtDT0=    0
 Symmetry not used in FoFCou.
 Keep J ints in memory in canonical form, NReq=1757006.
 Requested convergence on RMS density matrix=1.00D-08 within 128 cycles.
 Requested convergence on MAX density matrix=1.00D-06.
 Requested convergence on             energy=1.00D-06.
 No special actions if energy rises.
 Integral accuracy reduced to 1.0D-05 until final iterations.
 Initial convergence to 1.0D-05 achieved.  Increase integral accuracy.
 SCF Done:  E(RPBE-PBE) =  -528.119902330     A.U. after   13 cycles
            NFock= 13  Conv=0.67D-08     -V/T= 2.0028
 DoSCS=F DFT=T ScalE2(SS,OS)=  1.000000  1.000000
 Range of M.O.s used for correlation:     1    51
 NBasis=    51 NAE=    16 NBE=    16 NFC=     0 NFV=     0
 NROrb=     51 NOA=    16 NOB=    16 NVA=    35 NVB=    35

 **** Warning!!: The smallest alpha delta epsilon is  0.92149616D-01

 Symmetrizing basis deriv contribution to polar:
 IMax=3 JMax=2 DiffMx= 0.00D+00
   1 Symmetry operations used in ECPInt.
 ECPInt:  NShTT=     276 NPrTT=    1180 LenC2=     276 LenP2D=    1019.
 LDataN:  DoStor=T MaxTD1= 5 Len=  102
 Calling FoFJK, ICntrl=      2547 FMM=F ISym2X=0 I1Cent= 0 IOpClX= 0 NMat=1 NMatS=1 NMatT=0.
 -------------------------------------------------------------------
 Center     Atomic                   Forces (Hartrees/Bohr)
 Number     Number              X              Y              Z
 -------------------------------------------------------------------
      1        1           0.003601941    0.004031179   -0.000000000
      2       16          -0.002654461    0.001925971   -0.000000000
      3        7           0.005591437   -0.003618421   -0.000000000
      4        8          -0.006538916   -0.002338729    0.000000000
 -------------------------------------------------------------------
 Cartesian Forces:  Max     0.006538916 RMS     0.003323704
 IRC-IRC-IRC-IRC-IRC-IRC-IRC-IRC-IRC-IRC-IRC-IRC-IRC-IRC-IRC-IRC-IRC-IRC
 Pt  1 Step number   1 out of a maximum of  20
 Modified Bulirsch-Stoer Extrapolation Cycles:
    EPS =    0.000010000000000
      PEZero:  N= 2 I= 1 D=  1.36D-04 Err=  2.90D-04
      PEZero:  N= 3 I= 2 D=  1.36D-04 Err=  1.94D-04
      PEZero:  N= 3 I= 1 D=  2.72D-04 Err=  1.14D-06
 Maximum DWI energy   std dev =  0.000022790 at pt    41
 Maximum DWI gradient std dev =  0.990888852 at pt     1
 CORRECTOR INTEGRATION CONVERGENCE:
   Recorrection delta-x convergence threshold:    0.010000
   Delta-x Convergence Met
 Point Number:   1          Path Number:   1
   CHANGE IN THE REACTION COORDINATE =    0.05148
   NET REACTION COORDINATE UP TO THIS POINT =    0.05148
  # OF POINTS ALONG THE PATH =   1
  # OF STEPS =   1

 Calculating another point on the path.
 IRC-IRC-IRC-IRC-IRC-IRC-IRC-IRC-IRC-IRC-IRC-IRC-IRC-IRC-IRC-IRC-IRC-IRC
                          Input orientation:                          
 ---------------------------------------------------------------------
 Center     Atomic      Atomic             Coordinates (Angstroms)
 Number     Number       Type             X           Y           Z
 ---------------------------------------------------------------------
      1          1           0        1.025032   -0.643930   -0.000000
      2         16           0       -0.678403   -0.681718    0.000000
      3          7           0        0.014740    0.836370   -0.000000
      4          8           0        1.278563    0.671035    0.000000
 ---------------------------------------------------------------------
                    Distance matrix (angstroms):
                    1          2          3          4
     1  H    0.000000
     2  S    1.703854   0.000000
     3  N    1.792199   1.668843   0.000000
     4  O    1.339183   2.379003   1.274592   0.000000
 Symmetry turned off by external request.
 Stoichiometry    HNOS
 Framework group  CS[SG(HNOS)]
 Deg. of freedom     5
 Full point group                 CS      NOp   2
 Rotational constants (GHZ):          58.2922794           7.7123884           6.8112258
 Standard basis: def2SVP (5D, 7F)
    51 basis functions,    94 primitive gaussians,    54 cartesian basis functions
    16 alpha electrons       16 beta electrons
       nuclear repulsion energy        97.4332488615 Hartrees.
 NAtoms=    4 NActive=    4 NUniq=    4 SFac= 1.00D+00 NAtFMM=   60 NAOKFM=F Big=F
 Integral buffers will be    131072 words long.
 Raffenetti 2 integral format.
 Two-electron integral symmetry is turned off.
 One-electron integrals computed using PRISM.
   1 Symmetry operations used in ECPInt.
 ECPInt:  NShTT=     276 NPrTT=    1180 LenC2=     276 LenP2D=    1019.
 LDataN:  DoStor=T MaxTD1= 4 Len=   56
 NBasis=    51 RedAO= T EigKep=  1.01D-02  NBF=    51
 NBsUse=    51 1.00D-06 EigRej= -1.00D+00 NBFU=    51
 Initial guess from the checkpoint file:  "test_irc.chk"
 B after Tr=     0.000528    0.000561   -0.000000
         Rot=    1.000000   -0.000000    0.000000   -0.000205 Ang=  -0.02 deg.
 ExpMin= 1.22D-01 ExpMax= 9.18D+03 ExpMxC= 1.38D+03 IAcc=3 IRadAn=         5 AccDes= 0.00D+00
 Harris functional with IExCor= 1009 and IRadAn=       5 diagonalized for initial guess.
 HarFok:  IExCor= 1009 AccDes= 0.00D+00 IRadAn=         5 IDoV= 1 UseB2=F ITyADJ=14
 ICtDFT=  3500011 ScaDFX=  1.000000  1.000000  1.000000  1.000000
 FoFCou: FMM=F IPFlag=           0 FMFlag=      100000 FMFlg1=           0
         NFxFlg=           0 DoJE=T BraDBF=F KetDBF=T FulRan=T
         wScrn=  0.000000 ICntrl=       500 IOpCl=  0 I1Cent=   200000004 NGrid=           0
         NMat0=    1 NMatS0=      1 NMatT0=    0 NMatD0=    1 NMtDS0=    0 NMtDT0=    0
 Symmetry not used in FoFCou.
 Keep J ints in memory in canonical form, NReq=1757006.
 Requested convergence on RMS density matrix=1.00D-08 within 128 cycles.
 Requested convergence on MAX density matrix=1.00D-06.
 Requested convergence on             energy=1.00D-06.
 No special actions if energy rises.
 Integral accuracy reduced to 1.0D-05 until final iterations.
 Initial convergence to 1.0D-05 achieved.  Increase integral accuracy.
 SCF Done:  E(RPBE-PBE) =  -528.120304843     A.U. after   13 cycles
            NFock= 13  Conv=0.63D-08     -V/T= 2.0028
 DoSCS=F DFT=T ScalE2(SS,OS)=  1.000000  1.000000
 Range of M.O.s used for correlation:     1    51
 NBasis=    51 NAE=    16 NBE=    16 NFC=     0 NFV=     0
 NROrb=     51 NOA=    16 NOB=    16 NVA=    35 NVB=    35

 **** Warning!!: The smallest alpha delta epsilon is  0.93418450D-01

 Symmetrizing basis deriv contribution to polar:
 IMax=3 JMax=2 DiffMx= 0.00D+00
   1 Symmetry operations used in ECPInt.
 ECPInt:  NShTT=     276 NPrTT=    1180 LenC2=     276 LenP2D=    1019.
 LDataN:  DoStor=T MaxTD1= 5 Len=  102
 Calling FoFJK, ICntrl=      2547 FMM=F ISym2X=0 I1Cent= 0 IOpClX= 0 NMat=1 NMatS=1 NMatT=0.
 -------------------------------------------------------------------
 Center     Atomic                   Forces (Hartrees/Bohr)
 Number     Number              X              Y              Z
 -------------------------------------------------------------------
      1        1           0.006272659    0.006778020   -0.000000000
      2       16          -0.004195666    0.003262913    0.000000000
      3        7          -0.000114289   -0.004361503   -0.000000000
      4        8          -0.001962704   -0.005679431    0.000000000
 -------------------------------------------------------------------
 Cartesian Forces:  Max     0.006778020 RMS     0.003749244
 IRC-IRC-IRC-IRC-IRC-IRC-IRC-IRC-IRC-IRC-IRC-IRC-IRC-IRC-IRC-IRC-IRC-IRC
 Pt  2 Step number   1 out of a maximum of  20
 Modified Bulirsch-Stoer Extrapolation Cycles:
    EPS =    0.000010000000000
      PEZero:  N= 2 I= 1 D=  2.72D-04 Err=  3.29D-05
      PEZero:  N= 3 I= 2 D=  2.72D-04 Err=  2.18D-05
      PEZero:  N= 3 I= 1 D=  5.43D-04 Err=  1.85D-07
 Maximum DWI energy   std dev =  0.000001527 at pt    25
 Maximum DWI gradient std dev =  0.029972735 at pt    37
 CORRECTOR INTEGRATION CONVERGENCE:
   Recorrection delta-x convergence threshold:    0.010000
   Delta-x Convergence Met
 Point Number:   2          Path Number:   1
   CHANGE IN THE REACTION COORDINATE =    0.05210
   NET REACTION COORDINATE UP TO THIS POINT =    0.10358
  # OF POINTS ALONG THE PATH =   2
  # OF STEPS =   1

 Calculating another point on the path.
 IRC-IRC-IRC-IRC-IRC-IRC-IRC-IRC-IRC-IRC-IRC-IRC-IRC-IRC-IRC-IRC-IRC-IRC
                          Input orientation:                          
 ---------------------------------------------------------------------
 Center     Atomic      Atomic             Coordinates (Angstroms)
 Number     Number       Type             X           Y           Z
 ---------------------------------------------------------------------
      1          1           0        1.043240   -0.624264   -0.000000
      2         16           0       -0.678794   -0.681426    0.000000
      3          7           0        0.014701    0.835466   -0.000000
      4          8           0        1.278235    0.670010    0.000000
 ---------------------------------------------------------------------
                    Distance matrix (angstroms):
                    1          2          3          4
     1  H    0.000000
     2  S    1.722982   0.000000
     3  N    1.785694   1.667902   0.000000
     4  O    1.315434   2.378306   1.274321   0.000000
 Symmetry turned off by external request.
 Stoichiometry    HNOS
 Framework group  CS[SG(HNOS)]
 Deg. of freedom     5
 Full point group                 CS      NOp   2
 Rotational constants (GHZ):          58.4023598           7.7151128           6.8148520
 Standard basis: def2SVP (5D, 7F)
    51 basis functions,    94 primitive gaussians,    54 cartesian basis functions
    16 alpha electrons       16 beta electrons
       nuclear repulsion energy        97.4759816489 Hartrees.
 NAtoms=    4 NActive=    4 NUniq=    4 SFac= 1.00D+00 NAtFMM=   60 NAOKFM=F Big=F
 Integral buffers will be    131072 words long.
 Raffenetti 2 integral format.
 Two-electron integral symmetry is turned off.
 One-electron integrals computed using PRISM.
   1 Symmetry operations used in ECPInt.
 ECPInt:  NShTT=     276 NPrTT=    1180 LenC2=     276 LenP2D=    1020.
 LDataN:  DoStor=T MaxTD1= 4 Len=   56
 NBasis=    51 RedAO= T EigKep=  1.00D-02  NBF=    51
 NBsUse=    51 1.00D-06 EigRej= -1.00D+00 NBFU=    51
 Initial guess from the checkpoint file:  "test_irc.chk"
 B after Tr=     0.000527    0.000566   -0.000000
         Rot=    1.000000    0.000000    0.000000   -0.000206 Ang=  -0.02 deg.
 ExpMin= 1.22D-01 ExpMax= 9.18D+03 ExpMxC= 1.38D+03 IAcc=3 IRadAn=         5 AccDes= 0.00D+00
 Harris functional with IExCor= 1009 and IRadAn=       5 diagonalized for initial guess.
 HarFok:  IExCor= 1009 AccDes= 0.00D+00 IRadAn=         5 IDoV= 1 UseB2=F ITyADJ=14
 ICtDFT=  3500011 ScaDFX=  1.000000  1.000000  1.000000  1.000000
 FoFCou: FMM=F IPFlag=           0 FMFlag=      100000 FMFlg1=           0
         NFxFlg=           0 DoJE=T BraDBF=F KetDBF=T FulRan=T
         wScrn=  0.000000 ICntrl=       500 IOpCl=  0 I1Cent=   200000004 NGrid=           0
         NMat0=    1 NMatS0=      1 NMatT0=    0 NMatD0=    1 NMtDS0=    0 NMtDT0=    0
 Symmetry not used in FoFCou.
 Keep J ints in memory in canonical form, NReq=1757006.
 Requested convergence on RMS density matrix=1.00D-08 within 128 cycles.
 Requested convergence on MAX density matrix=1.00D-06.
 Requested convergence on             energy=1.00D-06.
 No special actions if energy rises.
 Integral accuracy reduced to 1.0D-05 until final iterations.
 Initial convergence to 1.0D-05 achieved.  Increase integral accuracy.
 SCF Done:  E(RPBE-PBE) =  -528.120902417     A.U. after   13 cycles
            NFock= 13  Conv=0.60D-08     -V/T= 2.0028
 DoSCS=F DFT=T ScalE2(SS,OS)=  1.000000  1.000000
 Range of M.O.s used for correlation:     1    51
 NBasis=    51 NAE=    16 NBE=    16 NFC=     0 NFV=     0
 NROrb=     51 NOA=    16 NOB=    16 NVA=    35 NVB=    35

 **** Warning!!: The smallest alpha delta epsilon is  0.94284091D-01

 Symmetrizing basis deriv contribution to polar:
 IMax=3 JMax=2 DiffMx= 0.00D+00
   1 Symmetry operations used in ECPInt.
 ECPInt:  NShTT=     276 NPrTT=    1180 LenC2=     276 LenP2D=    1020.
 LDataN:  DoStor=T MaxTD1= 5 Len=  102
 Calling FoFJK, ICntrl=      2547 FMM=F ISym2X=0 I1Cent= 0 IOpClX= 0 NMat=1 NMatS=1 NMatT=0.
 -------------------------------------------------------------------
 Center     Atomic                   Forces (Hartrees/Bohr)
 Number     Number              X              Y              Z
 -------------------------------------------------------------------
      1        1           0.008945247    0.009725888   -0.000000000
      2       16          -0.005835652    0.004558236    0.000000000
      3        7          -0.004472597   -0.005361255    0.000000000
      4        8           0.001363001   -0.008922869   -0.000000000
 -------------------------------------------------------------------
 Cartesian Forces:  Max     0.009725888 RMS     0.005474678
 IRC-IRC-IRC-IRC-IRC-IRC-IRC-IRC-IRC-IRC-IRC-IRC-IRC-IRC-IRC-IRC-IRC-IRC
 Pt  3 Step number   1 out of a maximum of  20
 Modified Bulirsch-Stoer Extrapolation Cycles:
    EPS =    0.000010000000000
      PEZero:  N= 2 I= 1 D=  2.72D-04 Err=  2.65D-05
      PEZero:  N= 3 I= 2 D=  2.72D-04 Err=  1.76D-05
      PEZero:  N= 3 I= 1 D=  5.44D-04 Err=  4.06D-08
 Maximum DWI energy   std dev =  0.000000215 at pt    24
 Maximum DWI gradient std dev =  0.019833080 at pt    28
 CORRECTOR INTEGRATION CONVERGENCE:
   Recorrection delta-x convergence threshold:    0.010000
   Delta-x Convergence Met
 Point Number:   3          Path Number:   1
   CHANGE IN THE REACTION COORDINATE =    0.05221
   NET REACTION COORDINATE UP TO THIS POINT =    0.15579
  # OF POINTS ALONG THE PATH =   3
  # OF STEPS =   1

 Calculating another point on the path.
 IRC-IRC-IRC-IRC-IRC-IRC-IRC-IRC-IRC-IRC-IRC-IRC-IRC-IRC-IRC-IRC-IRC-IRC
                          Input orientation:                          
 ---------------------------------------------------------------------
 Center     Atomic      Atomic             Coordinates (Angstroms)
 Number     Number       Type             X           Y           Z
 ---------------------------------------------------------------------
      1          1           0        1.061216   -0.604539   -0.000000
      2         16           0       -0.679159   -0.681140    0.000000
      3          7           0        0.013838    0.834735   -0.000000
      4          8           0        1.278586    0.668832    0.000000
 ---------------------------------------------------------------------
                    Distance matrix (angstroms):
                    1          2          3          4
     1  H    0.000000
     2  S    1.742059   0.000000
     3  N    1.780031   1.666770   0.000000
     4  O    1.291791   2.378064   1.275583   0.000000
 Symmetry turned off by external request.
 Stoichiometry    HNOS
 Framework group  CS[SG(HNOS)]
 Deg. of freedom     5
 Full point group                 CS      NOp   2
 Rotational constants (GHZ):          58.3997363           7.7164830           6.8158854
 Standard basis: def2SVP (5D, 7F)
    51 basis functions,    94 primitive gaussians,    54 cartesian basis functions
    16 alpha electrons       16 beta electrons
       nuclear repulsion energy        97.4917110714 Hartrees.
 NAtoms=    4 NActive=    4 NUniq=    4 SFac= 1.00D+00 NAtFMM=   60 NAOKFM=F Big=F
 Integral buffers will be    131072 words long.
 Raffenetti 2 integral format.
 Two-electron integral symmetry is turned off.
 One-electron integrals computed using PRISM.
   1 Symmetry operations used in ECPInt.
 ECPInt:  NShTT=     276 NPrTT=    1180 LenC2=     276 LenP2D=    1020.
 LDataN:  DoStor=T MaxTD1= 4 Len=   56
 NBasis=    51 RedAO= T EigKep=  1.00D-02  NBF=    51
 NBsUse=    51 1.00D-06 EigRej= -1.00D+00 NBFU=    51
 Initial guess from the checkpoint file:  "test_irc.chk"
 B after Tr=     0.000518    0.000565   -0.000000
         Rot=    1.000000   -0.000000   -0.000000   -0.000205 Ang=  -0.02 deg.
 ExpMin= 1.22D-01 ExpMax= 9.18D+03 ExpMxC= 1.38D+03 IAcc=3 IRadAn=         5 AccDes= 0.00D+00
 Harris functional with IExCor= 1009 and IRadAn=       5 diagonalized for initial guess.
 HarFok:  IExCor= 1009 AccDes= 0.00D+00 IRadAn=         5 IDoV= 1 UseB2=F ITyADJ=14
 ICtDFT=  3500011 ScaDFX=  1.000000  1.000000  1.000000  1.000000
 FoFCou: FMM=F IPFlag=           0 FMFlag=      100000 FMFlg1=           0
         NFxFlg=           0 DoJE=T BraDBF=F KetDBF=T FulRan=T
         wScrn=  0.000000 ICntrl=       500 IOpCl=  0 I1Cent=   200000004 NGrid=           0
         NMat0=    1 NMatS0=      1 NMatT0=    0 NMatD0=    1 NMtDS0=    0 NMtDT0=    0
 Symmetry not used in FoFCou.
 Keep J ints in memory in canonical form, NReq=1757006.
 Requested convergence on RMS density matrix=1.00D-08 within 128 cycles.
 Requested convergence on MAX density matrix=1.00D-06.
 Requested convergence on             energy=1.00D-06.
 No special actions if energy rises.
 Integral accuracy reduced to 1.0D-05 until final iterations.
 Initial convergence to 1.0D-05 achieved.  Increase integral accuracy.
 SCF Done:  E(RPBE-PBE) =  -528.121721528     A.U. after   13 cycles
            NFock= 13  Conv=0.58D-08     -V/T= 2.0028
 DoSCS=F DFT=T ScalE2(SS,OS)=  1.000000  1.000000
 Range of M.O.s used for correlation:     1    51
 NBasis=    51 NAE=    16 NBE=    16 NFC=     0 NFV=     0
 NROrb=     51 NOA=    16 NOB=    16 NVA=    35 NVB=    35

 **** Warning!!: The smallest alpha delta epsilon is  0.94620012D-01

 Symmetrizing basis deriv contribution to polar:
 IMax=3 JMax=2 DiffMx= 0.00D+00
   1 Symmetry operations used in ECPInt.
 ECPInt:  NShTT=     276 NPrTT=    1180 LenC2=     276 LenP2D=    1020.
 LDataN:  DoStor=T MaxTD1= 5 Len=  102
 Calling FoFJK, ICntrl=      2547 FMM=F ISym2X=0 I1Cent= 0 IOpClX= 0 NMat=1 NMatS=1 NMatT=0.
 -------------------------------------------------------------------
 Center     Atomic                   Forces (Hartrees/Bohr)
 Number     Number              X              Y              Z
 -------------------------------------------------------------------
      1        1           0.011565030    0.012791870   -0.000000000
      2       16          -0.007567033    0.005773232   -0.000000000
      3        7          -0.007458320   -0.006588780   -0.000000000
      4        8           0.003460322   -0.011976322    0.000000000
 -------------------------------------------------------------------
 Cartesian Forces:  Max     0.012791870 RMS     0.007316743
 IRC-IRC-IRC-IRC-IRC-IRC-IRC-IRC-IRC-IRC-IRC-IRC-IRC-IRC-IRC-IRC-IRC-IRC
 Pt  4 Step number   1 out of a maximum of  20
 Modified Bulirsch-Stoer Extrapolation Cycles:
    EPS =    0.000010000000000
      PEZero:  N= 2 I= 1 D=  2.72D-04 Err=  1.03D-05
      PEZero:  N= 3 I= 2 D=  2.72D-04 Err=  6.88D-06
      PEZero:  N= 3 I= 1 D=  5.44D-04 Err=  2.26D-08
 Maximum DWI energy   std dev =  0.000000260 at pt    37
 Maximum DWI gradient std dev =  0.001355244 at pt    38
 CORRECTOR INTEGRATION CONVERGENCE:
   Recorrection delta-x convergence threshold:    0.010000
   Delta-x Convergence Met
 Point Number:   4          Path Number:   1
   CHANGE IN THE REACTION COORDINATE =    0.05223
   NET REACTION COORDINATE UP TO THIS POINT =    0.20802
  # OF POINTS ALONG THE PATH =   4
  # OF STEPS =   1

 Calculating another point on the path.
 IRC-IRC-IRC-IRC-IRC-IRC-IRC-IRC-IRC-IRC-IRC-IRC-IRC-IRC-IRC-IRC-IRC-IRC
                          Input orientation:                          
 ---------------------------------------------------------------------
 Center     Atomic      Atomic             Coordinates (Angstroms)
 Number     Number       Type             X           Y           Z
 ---------------------------------------------------------------------
      1          1           0        1.079009   -0.584728   -0.000000
      2         16           0       -0.679528   -0.680863    0.000000
      3          7           0        0.012951    0.834019   -0.000000
      4          8           0        1.278980    0.667658    0.000000
 ---------------------------------------------------------------------
                    Distance matrix (angstroms):
                    1          2          3          4
     1  H    0.000000
     2  S    1.761163   0.000000
     3  N    1.774633   1.665652   0.000000
     4  O    1.268250   2.377870   1.276912   0.000000
 Symmetry turned off by external request.
 Stoichiometry    HNOS
 Framework group  CS[SG(HNOS)]
 Deg. of freedom     5
 Full point group                 CS      NOp   2
 Rotational constants (GHZ):          58.3958173           7.7174234           6.8165657
 Standard basis: def2SVP (5D, 7F)
    51 basis functions,    94 primitive gaussians,    54 cartesian basis functions
    16 alpha electrons       16 beta electrons
       nuclear repulsion energy        97.5081555288 Hartrees.
 NAtoms=    4 NActive=    4 NUniq=    4 SFac= 1.00D+00 NAtFMM=   60 NAOKFM=F Big=F
 Integral buffers will be    131072 words long.
 Raffenetti 2 integral format.
 Two-electron integral symmetry is turned off.
 One-electron integrals computed using PRISM.
   1 Symmetry operations used in ECPInt.
 ECPInt:  NShTT=     276 NPrTT=    1180 LenC2=     276 LenP2D=    1020.
 LDataN:  DoStor=T MaxTD1= 4 Len=   56
 NBasis=    51 RedAO= T EigKep=  1.00D-02  NBF=    51
 NBsUse=    51 1.00D-06 EigRej= -1.00D+00 NBFU=    51
 Initial guess from the checkpoint file:  "test_irc.chk"
 B after Tr=     0.000514    0.000568   -0.000000
         Rot=    1.000000   -0.000000   -0.000000   -0.000205 Ang=  -0.02 deg.
 ExpMin= 1.22D-01 ExpMax= 9.18D+03 ExpMxC= 1.38D+03 IAcc=3 IRadAn=         5 AccDes= 0.00D+00
 Harris functional with IExCor= 1009 and IRadAn=       5 diagonalized for initial guess.
 HarFok:  IExCor= 1009 AccDes= 0.00D+00 IRadAn=         5 IDoV= 1 UseB2=F ITyADJ=14
 ICtDFT=  3500011 ScaDFX=  1.000000  1.000000  1.000000  1.000000
 FoFCou: FMM=F IPFlag=           0 FMFlag=      100000 FMFlg1=           0
         NFxFlg=           0 DoJE=T BraDBF=F KetDBF=T FulRan=T
         wScrn=  0.000000 ICntrl=       500 IOpCl=  0 I1Cent=   200000004 NGrid=           0
         NMat0=    1 NMatS0=      1 NMatT0=    0 NMatD0=    1 NMtDS0=    0 NMtDT0=    0
 Symmetry not used in FoFCou.
 Keep J ints in memory in canonical form, NReq=1757006.
 Requested convergence on RMS density matrix=1.00D-08 within 128 cycles.
 Requested convergence on MAX density matrix=1.00D-06.
 Requested convergence on             energy=1.00D-06.
 No special actions if energy rises.
 Integral accuracy reduced to 1.0D-05 until final iterations.
 Initial convergence to 1.0D-05 achieved.  Increase integral accuracy.
 SCF Done:  E(RPBE-PBE) =  -528.122753021     A.U. after   13 cycles
            NFock= 13  Conv=0.57D-08     -V/T= 2.0028
 DoSCS=F DFT=T ScalE2(SS,OS)=  1.000000  1.000000
 Range of M.O.s used for correlation:     1    51
 NBasis=    51 NAE=    16 NBE=    16 NFC=     0 NFV=     0
 NROrb=     51 NOA=    16 NOB=    16 NVA=    35 NVB=    35

 **** Warning!!: The smallest alpha delta epsilon is  0.94461438D-01

 Symmetrizing basis deriv contribution to polar:
 IMax=3 JMax=2 DiffMx= 0.00D+00
   1 Symmetry operations used in ECPInt.
 ECPInt:  NShTT=     276 NPrTT=    1180 LenC2=     276 LenP2D=    1020.
 LDataN:  DoStor=T MaxTD1= 5 Len=  102
 Calling FoFJK, ICntrl=      2547 FMM=F ISym2X=0 I1Cent= 0 IOpClX= 0 NMat=1 NMatS=1 NMatT=0.
 -------------------------------------------------------------------
 Center     Atomic                   Forces (Hartrees/Bohr)
 Number     Number              X              Y              Z
 -------------------------------------------------------------------
      1        1           0.014030997    0.015685901    0.000000000
      2       16          -0.009310891    0.006863674    0.000000000
      3        7          -0.010315646   -0.007776990    0.000000000
      4        8           0.005595541   -0.014772586   -0.000000000
 -------------------------------------------------------------------
 Cartesian Forces:  Max     0.015685901 RMS     0.009097401
 IRC-IRC-IRC-IRC-IRC-IRC-IRC-IRC-IRC-IRC-IRC-IRC-IRC-IRC-IRC-IRC-IRC-IRC
 Pt  5 Step number   1 out of a maximum of  20
 Modified Bulirsch-Stoer Extrapolation Cycles:
    EPS =    0.000010000000000
      PEZero:  N= 2 I= 1 D=  2.72D-04 Err=  5.92D-06
 Maximum DWI energy   std dev =  0.000000663 at pt    36
 Maximum DWI gradient std dev =  0.000851571 at pt    38
 CORRECTOR INTEGRATION CONVERGENCE:
   Recorrection delta-x convergence threshold:    0.010000
   Delta-x Convergence Met
 Point Number:   5          Path Number:   1
   CHANGE IN THE REACTION COORDINATE =    0.05224
   NET REACTION COORDINATE UP TO THIS POINT =    0.26026
  # OF POINTS ALONG THE PATH =   5
  # OF STEPS =   1

 Calculating another point on the path.
 IRC-IRC-IRC-IRC-IRC-IRC-IRC-IRC-IRC-IRC-IRC-IRC-IRC-IRC-IRC-IRC-IRC-IRC
                          Input orientation:                          
 ---------------------------------------------------------------------
 Center     Atomic      Atomic             Coordinates (Angstroms)
 Number     Number       Type             X           Y           Z
 ---------------------------------------------------------------------
      1          1           0        1.096679   -0.564886   -0.000000
      2         16           0       -0.679902   -0.680593    0.000000
      3          7           0        0.011978    0.833319   -0.000000
      4          8           0        1.279464    0.666481    0.000000
 ---------------------------------------------------------------------
                    Distance matrix (angstroms):
                    1          2          3          4
     1  H    0.000000
     2  S    1.780345   0.000000
     3  N    1.769620   1.664521   0.000000
     4  O    1.244860   2.377756   1.278419   0.000000
 Symmetry turned off by external request.
 Stoichiometry    HNOS
 Framework group  CS[SG(HNOS)]
 Deg. of freedom     5
 Full point group                 CS      NOp   2
 Rotational constants (GHZ):          58.3820872           7.7178678           6.8167252
 Standard basis: def2SVP (5D, 7F)
    51 basis functions,    94 primitive gaussians,    54 cartesian basis functions
    16 alpha electrons       16 beta electrons
       nuclear repulsion energy        97.5231748917 Hartrees.
 NAtoms=    4 NActive=    4 NUniq=    4 SFac= 1.00D+00 NAtFMM=   60 NAOKFM=F Big=F
 Integral buffers will be    131072 words long.
 Raffenetti 2 integral format.
 Two-electron integral symmetry is turned off.
 One-electron integrals computed using PRISM.
   1 Symmetry operations used in ECPInt.
 ECPInt:  NShTT=     276 NPrTT=    1180 LenC2=     276 LenP2D=    1020.
 LDataN:  DoStor=T MaxTD1= 4 Len=   56
 NBasis=    51 RedAO= T EigKep=  1.00D-02  NBF=    51
 NBsUse=    51 1.00D-06 EigRej= -1.00D+00 NBFU=    51
 Initial guess from the checkpoint file:  "test_irc.chk"
 B after Tr=     0.000510    0.000569    0.000000
         Rot=    1.000000    0.000000    0.000000   -0.000205 Ang=  -0.02 deg.
 ExpMin= 1.22D-01 ExpMax= 9.18D+03 ExpMxC= 1.38D+03 IAcc=3 IRadAn=         5 AccDes= 0.00D+00
 Harris functional with IExCor= 1009 and IRadAn=       5 diagonalized for initial guess.
 HarFok:  IExCor= 1009 AccDes= 0.00D+00 IRadAn=         5 IDoV= 1 UseB2=F ITyADJ=14
 ICtDFT=  3500011 ScaDFX=  1.000000  1.000000  1.000000  1.000000
 FoFCou: FMM=F IPFlag=           0 FMFlag=      100000 FMFlg1=           0
         NFxFlg=           0 DoJE=T BraDBF=F KetDBF=T FulRan=T
         wScrn=  0.000000 ICntrl=       500 IOpCl=  0 I1Cent=   200000004 NGrid=           0
         NMat0=    1 NMatS0=      1 NMatT0=    0 NMatD0=    1 NMtDS0=    0 NMtDT0=    0
 Symmetry not used in FoFCou.
 Keep J ints in memory in canonical form, NReq=1757006.
 Requested convergence on RMS density matrix=1.00D-08 within 128 cycles.
 Requested convergence on MAX density matrix=1.00D-06.
 Requested convergence on             energy=1.00D-06.
 No special actions if energy rises.
 Integral accuracy reduced to 1.0D-05 until final iterations.
 Initial convergence to 1.0D-05 achieved.  Increase integral accuracy.
 SCF Done:  E(RPBE-PBE) =  -528.123983743     A.U. after   13 cycles
            NFock= 13  Conv=0.56D-08     -V/T= 2.0028
 DoSCS=F DFT=T ScalE2(SS,OS)=  1.000000  1.000000
 Range of M.O.s used for correlation:     1    51
 NBasis=    51 NAE=    16 NBE=    16 NFC=     0 NFV=     0
 NROrb=     51 NOA=    16 NOB=    16 NVA=    35 NVB=    35

 **** Warning!!: The smallest alpha delta epsilon is  0.93769500D-01

 Symmetrizing basis deriv contribution to polar:
 IMax=3 JMax=2 DiffMx= 0.00D+00
   1 Symmetry operations used in ECPInt.
 ECPInt:  NShTT=     276 NPrTT=    1180 LenC2=     276 LenP2D=    1020.
 LDataN:  DoStor=T MaxTD1= 5 Len=  102
 Calling FoFJK, ICntrl=      2547 FMM=F ISym2X=0 I1Cent= 0 IOpClX= 0 NMat=1 NMatS=1 NMatT=0.
 -------------------------------------------------------------------
 Center     Atomic                   Forces (Hartrees/Bohr)
 Number     Number              X              Y              Z
 -------------------------------------------------------------------
      1        1           0.016290244    0.018331498   -0.000000000
      2       16          -0.011038525    0.007830789    0.000000000
      3        7          -0.012923641   -0.008952589   -0.000000000
      4        8           0.007671923   -0.017209698    0.000000000
 -------------------------------------------------------------------
 Cartesian Forces:  Max     0.018331498 RMS     0.010750146
 IRC-IRC-IRC-IRC-IRC-IRC-IRC-IRC-IRC-IRC-IRC-IRC-IRC-IRC-IRC-IRC-IRC-IRC
 Pt  6 Step number   1 out of a maximum of  20
 Modified Bulirsch-Stoer Extrapolation Cycles:
    EPS =    0.000010000000000
      PEZero:  N= 2 I= 1 D=  2.72D-04 Err=  4.32D-06
 Maximum DWI energy   std dev =  0.000000990 at pt    36
 Maximum DWI gradient std dev =  0.000829969 at pt    38
 CORRECTOR INTEGRATION CONVERGENCE:
   Recorrection delta-x convergence threshold:    0.010000
   Delta-x Convergence Met
 Point Number:   6          Path Number:   1
   CHANGE IN THE REACTION COORDINATE =    0.05224
   NET REACTION COORDINATE UP TO THIS POINT =    0.31250
  # OF POINTS ALONG THE PATH =   6
  # OF STEPS =   1

 Calculating another point on the path.
 IRC-IRC-IRC-IRC-IRC-IRC-IRC-IRC-IRC-IRC-IRC-IRC-IRC-IRC-IRC-IRC-IRC-IRC
                          Input orientation:                          
 ---------------------------------------------------------------------
 Center     Atomic      Atomic             Coordinates (Angstroms)
 Number     Number       Type             X           Y           Z
 ---------------------------------------------------------------------
      1          1           0        1.114273   -0.545040   -0.000000
      2         16           0       -0.680282   -0.680329    0.000000
      3          7           0        0.010946    0.832623   -0.000000
      4          8           0        1.280019    0.665312    0.000000
 ---------------------------------------------------------------------
                    Distance matrix (angstroms):
                    1          2          3          4
     1  H    0.000000
     2  S    1.799647   0.000000
     3  N    1.765017   1.663376   0.000000
     4  O    1.221648   2.377715   1.280054   0.000000
 Symmetry turned off by external request.
 Stoichiometry    HNOS
 Framework group  CS[SG(HNOS)]
 Deg. of freedom     5
 Full point group                 CS      NOp   2
 Rotational constants (GHZ):          58.3625162           7.7178246           6.8164246
 Standard basis: def2SVP (5D, 7F)
    51 basis functions,    94 primitive gaussians,    54 cartesian basis functions
    16 alpha electrons       16 beta electrons
       nuclear repulsion energy        97.5376259443 Hartrees.
 NAtoms=    4 NActive=    4 NUniq=    4 SFac= 1.00D+00 NAtFMM=   60 NAOKFM=F Big=F
 Integral buffers will be    131072 words long.
 Raffenetti 2 integral format.
 Two-electron integral symmetry is turned off.
 One-electron integrals computed using PRISM.
   1 Symmetry operations used in ECPInt.
 ECPInt:  NShTT=     276 NPrTT=    1180 LenC2=     276 LenP2D=    1020.
 LDataN:  DoStor=T MaxTD1= 4 Len=   56
 NBasis=    51 RedAO= T EigKep=  1.00D-02  NBF=    51
 NBsUse=    51 1.00D-06 EigRej= -1.00D+00 NBFU=    51
 Initial guess from the checkpoint file:  "test_irc.chk"
 B after Tr=     0.000508    0.000569   -0.000000
         Rot=    1.000000   -0.000000   -0.000000   -0.000204 Ang=  -0.02 deg.
 ExpMin= 1.22D-01 ExpMax= 9.18D+03 ExpMxC= 1.38D+03 IAcc=3 IRadAn=         5 AccDes= 0.00D+00
 Harris functional with IExCor= 1009 and IRadAn=       5 diagonalized for initial guess.
 HarFok:  IExCor= 1009 AccDes= 0.00D+00 IRadAn=         5 IDoV= 1 UseB2=F ITyADJ=14
 ICtDFT=  3500011 ScaDFX=  1.000000  1.000000  1.000000  1.000000
 FoFCou: FMM=F IPFlag=           0 FMFlag=      100000 FMFlg1=           0
         NFxFlg=           0 DoJE=T BraDBF=F KetDBF=T FulRan=T
         wScrn=  0.000000 ICntrl=       500 IOpCl=  0 I1Cent=   200000004 NGrid=           0
         NMat0=    1 NMatS0=      1 NMatT0=    0 NMatD0=    1 NMtDS0=    0 NMtDT0=    0
 Symmetry not used in FoFCou.
 Keep J ints in memory in canonical form, NReq=1757006.
 Requested convergence on RMS density matrix=1.00D-08 within 128 cycles.
 Requested convergence on MAX density matrix=1.00D-06.
 Requested convergence on             energy=1.00D-06.
 No special actions if energy rises.
 Integral accuracy reduced to 1.0D-05 until final iterations.
 Initial convergence to 1.0D-05 achieved.  Increase integral accuracy.
 SCF Done:  E(RPBE-PBE) =  -528.125393151     A.U. after   13 cycles
            NFock= 13  Conv=0.55D-08     -V/T= 2.0028
 DoSCS=F DFT=T ScalE2(SS,OS)=  1.000000  1.000000
 Range of M.O.s used for correlation:     1    51
 NBasis=    51 NAE=    16 NBE=    16 NFC=     0 NFV=     0
 NROrb=     51 NOA=    16 NOB=    16 NVA=    35 NVB=    35

 **** Warning!!: The smallest alpha delta epsilon is  0.92589101D-01

 Symmetrizing basis deriv contribution to polar:
 IMax=3 JMax=2 DiffMx= 0.00D+00
   1 Symmetry operations used in ECPInt.
 ECPInt:  NShTT=     276 NPrTT=    1180 LenC2=     276 LenP2D=    1020.
 LDataN:  DoStor=T MaxTD1= 5 Len=  102
 Calling FoFJK, ICntrl=      2547 FMM=F ISym2X=0 I1Cent= 0 IOpClX= 0 NMat=1 NMatS=1 NMatT=0.
 -------------------------------------------------------------------
 Center     Atomic                   Forces (Hartrees/Bohr)
 Number     Number              X              Y              Z
 -------------------------------------------------------------------
      1        1           0.018291367    0.020607553    0.000000000
      2       16          -0.012717207    0.008675479    0.000000000
      3        7          -0.015301158   -0.010113572   -0.000000000
      4        8           0.009726998   -0.019169461   -0.000000000
 -------------------------------------------------------------------
 Cartesian Forces:  Max     0.020607553 RMS     0.012229504
 IRC-IRC-IRC-IRC-IRC-IRC-IRC-IRC-IRC-IRC-IRC-IRC-IRC-IRC-IRC-IRC-IRC-IRC
 Pt  7 Step number   1 out of a maximum of  20
 Modified Bulirsch-Stoer Extrapolation Cycles:
    EPS =    0.000010000000000
      PEZero:  N= 2 I= 1 D=  2.72D-04 Err=  3.72D-06
 Maximum DWI energy   std dev =  0.000001357 at pt    36
 Maximum DWI gradient std dev =  0.001078941 at pt    38
 CORRECTOR INTEGRATION CONVERGENCE:
   Recorrection delta-x convergence threshold:    0.010000
   Delta-x Convergence Met
 Point Number:   7          Path Number:   1
   CHANGE IN THE REACTION COORDINATE =    0.05224
   NET REACTION COORDINATE UP TO THIS POINT =    0.36475
  # OF POINTS ALONG THE PATH =   7
  # OF STEPS =   1

 Calculating another point on the path.
 IRC-IRC-IRC-IRC-IRC-IRC-IRC-IRC-IRC-IRC-IRC-IRC-IRC-IRC-IRC-IRC-IRC-IRC
                          Input orientation:                          
 ---------------------------------------------------------------------
 Center     Atomic      Atomic             Coordinates (Angstroms)
 Number     Number       Type             X           Y           Z
 ---------------------------------------------------------------------
      1          1           0        1.131853   -0.525241   -0.000000
      2         16           0       -0.680673   -0.680068    0.000000
      3          7           0        0.009866    0.831918   -0.000000
      4          8           0        1.280639    0.664159    0.000000
 ---------------------------------------------------------------------
                    Distance matrix (angstroms):
                    1          2          3          4
     1  H    0.000000
     2  S    1.819126   0.000000
     3  N    1.760891   1.662211   0.000000
     4  O    1.198670   2.377748   1.281798   0.000000
 Symmetry turned off by external request.
 Stoichiometry    HNOS
 Framework group  CS[SG(HNOS)]
 Deg. of freedom     5
 Full point group                 CS      NOp   2
 Rotational constants (GHZ):          58.3386845           7.7172780           6.8156731
 Standard basis: def2SVP (5D, 7F)
    51 basis functions,    94 primitive gaussians,    54 cartesian basis functions
    16 alpha electrons       16 beta electrons
       nuclear repulsion energy        97.5516864868 Hartrees.
 NAtoms=    4 NActive=    4 NUniq=    4 SFac= 1.00D+00 NAtFMM=   60 NAOKFM=F Big=F
 Integral buffers will be    131072 words long.
 Raffenetti 2 integral format.
 Two-electron integral symmetry is turned off.
 One-electron integrals computed using PRISM.
   1 Symmetry operations used in ECPInt.
 ECPInt:  NShTT=     276 NPrTT=    1180 LenC2=     276 LenP2D=    1020.
 LDataN:  DoStor=T MaxTD1= 4 Len=   56
 NBasis=    51 RedAO= T EigKep=  1.00D-02  NBF=    51
 NBsUse=    51 1.00D-06 EigRej= -1.00D+00 NBFU=    51
 Initial guess from the checkpoint file:  "test_irc.chk"
 B after Tr=     0.000508    0.000567    0.000000
         Rot=    1.000000    0.000000    0.000000   -0.000204 Ang=  -0.02 deg.
 ExpMin= 1.22D-01 ExpMax= 9.18D+03 ExpMxC= 1.38D+03 IAcc=3 IRadAn=         5 AccDes= 0.00D+00
 Harris functional with IExCor= 1009 and IRadAn=       5 diagonalized for initial guess.
 HarFok:  IExCor= 1009 AccDes= 0.00D+00 IRadAn=         5 IDoV= 1 UseB2=F ITyADJ=14
 ICtDFT=  3500011 ScaDFX=  1.000000  1.000000  1.000000  1.000000
 FoFCou: FMM=F IPFlag=           0 FMFlag=      100000 FMFlg1=           0
         NFxFlg=           0 DoJE=T BraDBF=F KetDBF=T FulRan=T
         wScrn=  0.000000 ICntrl=       500 IOpCl=  0 I1Cent=   200000004 NGrid=           0
         NMat0=    1 NMatS0=      1 NMatT0=    0 NMatD0=    1 NMtDS0=    0 NMtDT0=    0
 Symmetry not used in FoFCou.
 Keep J ints in memory in canonical form, NReq=1757006.
 Requested convergence on RMS density matrix=1.00D-08 within 128 cycles.
 Requested convergence on MAX density matrix=1.00D-06.
 Requested convergence on             energy=1.00D-06.
 No special actions if energy rises.
 Integral accuracy reduced to 1.0D-05 until final iterations.
 Initial convergence to 1.0D-05 achieved.  Increase integral accuracy.
 SCF Done:  E(RPBE-PBE) =  -528.126953998     A.U. after   13 cycles
            NFock= 13  Conv=0.53D-08     -V/T= 2.0028
 DoSCS=F DFT=T ScalE2(SS,OS)=  1.000000  1.000000
 Range of M.O.s used for correlation:     1    51
 NBasis=    51 NAE=    16 NBE=    16 NFC=     0 NFV=     0
 NROrb=     51 NOA=    16 NOB=    16 NVA=    35 NVB=    35

 **** Warning!!: The smallest alpha delta epsilon is  0.91018798D-01

 Symmetrizing basis deriv contribution to polar:
 IMax=3 JMax=2 DiffMx= 0.00D+00
   1 Symmetry operations used in ECPInt.
 ECPInt:  NShTT=     276 NPrTT=    1180 LenC2=     276 LenP2D=    1020.
 LDataN:  DoStor=T MaxTD1= 5 Len=  102
 Calling FoFJK, ICntrl=      2547 FMM=F ISym2X=0 I1Cent= 0 IOpClX= 0 NMat=1 NMatS=1 NMatT=0.
 -------------------------------------------------------------------
 Center     Atomic                   Forces (Hartrees/Bohr)
 Number     Number              X              Y              Z
 -------------------------------------------------------------------
      1        1           0.019985854    0.022384219    0.000000000
      2       16          -0.014318736    0.009399049    0.000000000
      3        7          -0.017433570   -0.011265852   -0.000000000
      4        8           0.011766452   -0.020517417   -0.000000000
 -------------------------------------------------------------------
 Cartesian Forces:  Max     0.022384219 RMS     0.013491104
 IRC-IRC-IRC-IRC-IRC-IRC-IRC-IRC-IRC-IRC-IRC-IRC-IRC-IRC-IRC-IRC-IRC-IRC
 Pt  8 Step number   1 out of a maximum of  20
 Modified Bulirsch-Stoer Extrapolation Cycles:
    EPS =    0.000010000000000
      PEZero:  N= 2 I= 1 D=  2.72D-04 Err=  3.63D-06
 Maximum DWI energy   std dev =  0.000001756 at pt    47
 Maximum DWI gradient std dev =  0.001523659 at pt    29
 CORRECTOR INTEGRATION CONVERGENCE:
   Recorrection delta-x convergence threshold:    0.010000
   Delta-x Convergence Met
 Point Number:   8          Path Number:   1
   CHANGE IN THE REACTION COORDINATE =    0.05224
   NET REACTION COORDINATE UP TO THIS POINT =    0.41699
  # OF POINTS ALONG THE PATH =   8
  # OF STEPS =   1

 Calculating another point on the path.
 IRC-IRC-IRC-IRC-IRC-IRC-IRC-IRC-IRC-IRC-IRC-IRC-IRC-IRC-IRC-IRC-IRC-IRC
                          Input orientation:                          
 ---------------------------------------------------------------------
 Center     Atomic      Atomic             Coordinates (Angstroms)
 Number     Number       Type             X           Y           Z
 ---------------------------------------------------------------------
      1          1           0        1.149497   -0.505564   -0.000000
      2         16           0       -0.681078   -0.679807    0.000000
      3          7           0        0.008738    0.831192   -0.000000
      4          8           0        1.281323    0.663033    0.000000
 ---------------------------------------------------------------------
                    Distance matrix (angstroms):
                    1          2          3          4
     1  H    0.000000
     2  S    1.838848   0.000000
     3  N    1.757341   1.661013   0.000000
     4  O    1.176009   2.377864   1.283647   0.000000
 Symmetry turned off by external request.
 Stoichiometry    HNOS
 Framework group  CS[SG(HNOS)]
 Deg. of freedom     5
 Full point group                 CS      NOp   2
 Rotational constants (GHZ):          58.3110106           7.7161875           6.8144447
 Standard basis: def2SVP (5D, 7F)
    51 basis functions,    94 primitive gaussians,    54 cartesian basis functions
    16 alpha electrons       16 beta electrons
       nuclear repulsion energy        97.5651053765 Hartrees.
 NAtoms=    4 NActive=    4 NUniq=    4 SFac= 1.00D+00 NAtFMM=   60 NAOKFM=F Big=F
 Integral buffers will be    131072 words long.
 Raffenetti 2 integral format.
 Two-electron integral symmetry is turned off.
 One-electron integrals computed using PRISM.
   1 Symmetry operations used in ECPInt.
 ECPInt:  NShTT=     276 NPrTT=    1180 LenC2=     276 LenP2D=    1020.
 LDataN:  DoStor=T MaxTD1= 4 Len=   56
 NBasis=    51 RedAO= T EigKep=  1.01D-02  NBF=    51
 NBsUse=    51 1.00D-06 EigRej= -1.00D+00 NBFU=    51
 Initial guess from the checkpoint file:  "test_irc.chk"
 B after Tr=     0.000510    0.000563   -0.000000
         Rot=    1.000000    0.000000    0.000000   -0.000203 Ang=  -0.02 deg.
 ExpMin= 1.22D-01 ExpMax= 9.18D+03 ExpMxC= 1.38D+03 IAcc=3 IRadAn=         5 AccDes= 0.00D+00
 Harris functional with IExCor= 1009 and IRadAn=       5 diagonalized for initial guess.
 HarFok:  IExCor= 1009 AccDes= 0.00D+00 IRadAn=         5 IDoV= 1 UseB2=F ITyADJ=14
 ICtDFT=  3500011 ScaDFX=  1.000000  1.000000  1.000000  1.000000
 FoFCou: FMM=F IPFlag=           0 FMFlag=      100000 FMFlg1=           0
         NFxFlg=           0 DoJE=T BraDBF=F KetDBF=T FulRan=T
         wScrn=  0.000000 ICntrl=       500 IOpCl=  0 I1Cent=   200000004 NGrid=           0
         NMat0=    1 NMatS0=      1 NMatT0=    0 NMatD0=    1 NMtDS0=    0 NMtDT0=    0
 Symmetry not used in FoFCou.
 Keep J ints in memory in canonical form, NReq=1757006.
 Requested convergence on RMS density matrix=1.00D-08 within 128 cycles.
 Requested convergence on MAX density matrix=1.00D-06.
 Requested convergence on             energy=1.00D-06.
 No special actions if energy rises.
 Integral accuracy reduced to 1.0D-05 until final iterations.
 Initial convergence to 1.0D-05 achieved.  Increase integral accuracy.
 SCF Done:  E(RPBE-PBE) =  -528.128632386     A.U. after   13 cycles
            NFock= 13  Conv=0.50D-08     -V/T= 2.0028
 DoSCS=F DFT=T ScalE2(SS,OS)=  1.000000  1.000000
 Range of M.O.s used for correlation:     1    51
 NBasis=    51 NAE=    16 NBE=    16 NFC=     0 NFV=     0
 NROrb=     51 NOA=    16 NOB=    16 NVA=    35 NVB=    35

 **** Warning!!: The smallest alpha delta epsilon is  0.89178405D-01

 Symmetrizing basis deriv contribution to polar:
 IMax=3 JMax=2 DiffMx= 0.00D+00
   1 Symmetry operations used in ECPInt.
 ECPInt:  NShTT=     276 NPrTT=    1180 LenC2=     276 LenP2D=    1020.
 LDataN:  DoStor=T MaxTD1= 5 Len=  102
 Calling FoFJK, ICntrl=      2547 FMM=F ISym2X=0 I1Cent= 0 IOpClX= 0 NMat=1 NMatS=1 NMatT=0.
 -------------------------------------------------------------------
 Center     Atomic                   Forces (Hartrees/Bohr)
 Number     Number              X              Y              Z
 -------------------------------------------------------------------
      1        1           0.021331678    0.023533152    0.000000000
      2       16          -0.015819916    0.010003494    0.000000000
      3        7          -0.019287952   -0.012419588   -0.000000000
      4        8           0.013776190   -0.021117058   -0.000000000
 -------------------------------------------------------------------
 Cartesian Forces:  Max     0.023533152 RMS     0.014494752
 IRC-IRC-IRC-IRC-IRC-IRC-IRC-IRC-IRC-IRC-IRC-IRC-IRC-IRC-IRC-IRC-IRC-IRC
 Pt  9 Step number   1 out of a maximum of  20
 Modified Bulirsch-Stoer Extrapolation Cycles:
    EPS =    0.000010000000000
      PEZero:  N= 2 I= 1 D=  2.72D-04 Err=  3.85D-06
 Maximum DWI energy   std dev =  0.000002149 at pt    47
 Maximum DWI gradient std dev =  0.002074453 at pt    29
 CORRECTOR INTEGRATION CONVERGENCE:
   Recorrection delta-x convergence threshold:    0.010000
   Delta-x Convergence Met
 Point Number:   9          Path Number:   1
   CHANGE IN THE REACTION COORDINATE =    0.05224
   NET REACTION COORDINATE UP TO THIS POINT =    0.46923
  # OF POINTS ALONG THE PATH =   9
  # OF STEPS =   1

 Calculating another point on the path.
 IRC-IRC-IRC-IRC-IRC-IRC-IRC-IRC-IRC-IRC-IRC-IRC-IRC-IRC-IRC-IRC-IRC-IRC
                          Input orientation:                          
 ---------------------------------------------------------------------
 Center     Atomic      Atomic             Coordinates (Angstroms)
 Number     Number       Type             X           Y           Z
 ---------------------------------------------------------------------
      1          1           0        1.167299   -0.486109   -0.000000
      2         16           0       -0.681502   -0.679543    0.000000
      3          7           0        0.007562    0.830430   -0.000000
      4          8           0        1.282079    0.661948    0.000000
 ---------------------------------------------------------------------
                    Distance matrix (angstroms):
                    1          2          3          4
     1  H    0.000000
     2  S    1.858892   0.000000
     3  N    1.754499   1.659768   0.000000
     4  O    1.153780   2.378076   1.285606   0.000000
 Symmetry turned off by external request.
 Stoichiometry    HNOS
 Framework group  CS[SG(HNOS)]
 Deg. of freedom     5
 Full point group                 CS      NOp   2
 Rotational constants (GHZ):          58.2792498           7.7144887           6.8126860
 Standard basis: def2SVP (5D, 7F)
    51 basis functions,    94 primitive gaussians,    54 cartesian basis functions
    16 alpha electrons       16 beta electrons
       nuclear repulsion energy        97.5772797445 Hartrees.
 NAtoms=    4 NActive=    4 NUniq=    4 SFac= 1.00D+00 NAtFMM=   60 NAOKFM=F Big=F
 Integral buffers will be    131072 words long.
 Raffenetti 2 integral format.
 Two-electron integral symmetry is turned off.
 One-electron integrals computed using PRISM.
   1 Symmetry operations used in ECPInt.
 ECPInt:  NShTT=     276 NPrTT=    1180 LenC2=     276 LenP2D=    1021.
 LDataN:  DoStor=T MaxTD1= 4 Len=   56
 NBasis=    51 RedAO= T EigKep=  1.01D-02  NBF=    51
 NBsUse=    51 1.00D-06 EigRej= -1.00D+00 NBFU=    51
 Initial guess from the checkpoint file:  "test_irc.chk"
 B after Tr=     0.000515    0.000557    0.000000
         Rot=    1.000000    0.000000    0.000000   -0.000202 Ang=  -0.02 deg.
 ExpMin= 1.22D-01 ExpMax= 9.18D+03 ExpMxC= 1.38D+03 IAcc=3 IRadAn=         5 AccDes= 0.00D+00
 Harris functional with IExCor= 1009 and IRadAn=       5 diagonalized for initial guess.
 HarFok:  IExCor= 1009 AccDes= 0.00D+00 IRadAn=         5 IDoV= 1 UseB2=F ITyADJ=14
 ICtDFT=  3500011 ScaDFX=  1.000000  1.000000  1.000000  1.000000
 FoFCou: FMM=F IPFlag=           0 FMFlag=      100000 FMFlg1=           0
         NFxFlg=           0 DoJE=T BraDBF=F KetDBF=T FulRan=T
         wScrn=  0.000000 ICntrl=       500 IOpCl=  0 I1Cent=   200000004 NGrid=           0
         NMat0=    1 NMatS0=      1 NMatT0=    0 NMatD0=    1 NMtDS0=    0 NMtDT0=    0
 Symmetry not used in FoFCou.
 Keep J ints in memory in canonical form, NReq=1757006.
 Requested convergence on RMS density matrix=1.00D-08 within 128 cycles.
 Requested convergence on MAX density matrix=1.00D-06.
 Requested convergence on             energy=1.00D-06.
 No special actions if energy rises.
 Integral accuracy reduced to 1.0D-05 until final iterations.
 EnCoef did     1 forward-backward iterations
 Initial convergence to 1.0D-05 achieved.  Increase integral accuracy.
 SCF Done:  E(RPBE-PBE) =  -528.130388443     A.U. after   13 cycles
            NFock= 13  Conv=0.46D-08     -V/T= 2.0028
 DoSCS=F DFT=T ScalE2(SS,OS)=  1.000000  1.000000
 Range of M.O.s used for correlation:     1    51
 NBasis=    51 NAE=    16 NBE=    16 NFC=     0 NFV=     0
 NROrb=     51 NOA=    16 NOB=    16 NVA=    35 NVB=    35

 **** Warning!!: The smallest alpha delta epsilon is  0.87180702D-01

 Symmetrizing basis deriv contribution to polar:
 IMax=3 JMax=2 DiffMx= 0.00D+00
   1 Symmetry operations used in ECPInt.
 ECPInt:  NShTT=     276 NPrTT=    1180 LenC2=     276 LenP2D=    1021.
 LDataN:  DoStor=T MaxTD1= 5 Len=  102
 Calling FoFJK, ICntrl=      2547 FMM=F ISym2X=0 I1Cent= 0 IOpClX= 0 NMat=1 NMatS=1 NMatT=0.
 -------------------------------------------------------------------
 Center     Atomic                   Forces (Hartrees/Bohr)
 Number     Number              X              Y              Z
 -------------------------------------------------------------------
      1        1           0.022295475    0.023934170    0.000000000
      2       16          -0.017201612    0.010490261    0.000000000
      3        7          -0.020819102   -0.013587127   -0.000000000
      4        8           0.015725239   -0.020837304   -0.000000000
 -------------------------------------------------------------------
 Cartesian Forces:  Max     0.023934170 RMS     0.015207989
 IRC-IRC-IRC-IRC-IRC-IRC-IRC-IRC-IRC-IRC-IRC-IRC-IRC-IRC-IRC-IRC-IRC-IRC
 Pt 10 Step number   1 out of a maximum of  20
 Modified Bulirsch-Stoer Extrapolation Cycles:
    EPS =    0.000010000000000
      PEZero:  N= 2 I= 1 D=  2.72D-04 Err=  4.33D-06
 Maximum DWI energy   std dev =  0.000002503 at pt    47
 Maximum DWI gradient std dev =  0.002734488 at pt    29
 CORRECTOR INTEGRATION CONVERGENCE:
   Recorrection delta-x convergence threshold:    0.010000
   Delta-x Convergence Met
 Point Number:  10          Path Number:   1
   CHANGE IN THE REACTION COORDINATE =    0.05224
   NET REACTION COORDINATE UP TO THIS POINT =    0.52147
  # OF POINTS ALONG THE PATH =  10
  # OF STEPS =   1

 Calculating another point on the path.
 IRC-IRC-IRC-IRC-IRC-IRC-IRC-IRC-IRC-IRC-IRC-IRC-IRC-IRC-IRC-IRC-IRC-IRC
                          Input orientation:                          
 ---------------------------------------------------------------------
 Center     Atomic      Atomic             Coordinates (Angstroms)
 Number     Number       Type             X           Y           Z
 ---------------------------------------------------------------------
      1          1           0        1.185378   -0.467013   -0.000000
      2         16           0       -0.681951   -0.679274    0.000000
      3          7           0        0.006329    0.829615   -0.000000
      4          8           0        1.282917    0.660920    0.000000
 ---------------------------------------------------------------------
                    Distance matrix (angstroms):
                    1          2          3          4
     1  H    0.000000
     2  S    1.879354   0.000000
     3  N    1.752541   1.658455   0.000000
     4  O    1.132143   2.378408   1.287686   0.000000
 Symmetry turned off by external request.
 Stoichiometry    HNOS
 Framework group  CS[SG(HNOS)]
 Deg. of freedom     5
 Full point group                 CS      NOp   2
 Rotational constants (GHZ):          58.2426857           7.7120879           6.8103139
 Standard basis: def2SVP (5D, 7F)
    51 basis functions,    94 primitive gaussians,    54 cartesian basis functions
    16 alpha electrons       16 beta electrons
       nuclear repulsion energy        97.5872115544 Hartrees.
 NAtoms=    4 NActive=    4 NUniq=    4 SFac= 1.00D+00 NAtFMM=   60 NAOKFM=F Big=F
 Integral buffers will be    131072 words long.
 Raffenetti 2 integral format.
 Two-electron integral symmetry is turned off.
 One-electron integrals computed using PRISM.
   1 Symmetry operations used in ECPInt.
 ECPInt:  NShTT=     276 NPrTT=    1180 LenC2=     276 LenP2D=    1021.
 LDataN:  DoStor=T MaxTD1= 4 Len=   56
 NBasis=    51 RedAO= T EigKep=  1.01D-02  NBF=    51
 NBsUse=    51 1.00D-06 EigRej= -1.00D+00 NBFU=    51
 Initial guess from the checkpoint file:  "test_irc.chk"
 B after Tr=     0.000524    0.000546    0.000000
         Rot=    1.000000    0.000000    0.000000   -0.000200 Ang=  -0.02 deg.
 ExpMin= 1.22D-01 ExpMax= 9.18D+03 ExpMxC= 1.38D+03 IAcc=3 IRadAn=         5 AccDes= 0.00D+00
 Harris functional with IExCor= 1009 and IRadAn=       5 diagonalized for initial guess.
 HarFok:  IExCor= 1009 AccDes= 0.00D+00 IRadAn=         5 IDoV= 1 UseB2=F ITyADJ=14
 ICtDFT=  3500011 ScaDFX=  1.000000  1.000000  1.000000  1.000000
 FoFCou: FMM=F IPFlag=           0 FMFlag=      100000 FMFlg1=           0
         NFxFlg=           0 DoJE=T BraDBF=F KetDBF=T FulRan=T
         wScrn=  0.000000 ICntrl=       500 IOpCl=  0 I1Cent=   200000004 NGrid=           0
         NMat0=    1 NMatS0=      1 NMatT0=    0 NMatD0=    1 NMtDS0=    0 NMtDT0=    0
 Symmetry not used in FoFCou.
 Keep J ints in memory in canonical form, NReq=1757006.
 Requested convergence on RMS density matrix=1.00D-08 within 128 cycles.
 Requested convergence on MAX density matrix=1.00D-06.
 Requested convergence on             energy=1.00D-06.
 No special actions if energy rises.
 Integral accuracy reduced to 1.0D-05 until final iterations.
 EnCoef did     1 forward-backward iterations
 Initial convergence to 1.0D-05 achieved.  Increase integral accuracy.
 SCF Done:  E(RPBE-PBE) =  -528.132177189     A.U. after   13 cycles
            NFock= 13  Conv=0.41D-08     -V/T= 2.0028
 DoSCS=F DFT=T ScalE2(SS,OS)=  1.000000  1.000000
 Range of M.O.s used for correlation:     1    51
 NBasis=    51 NAE=    16 NBE=    16 NFC=     0 NFV=     0
 NROrb=     51 NOA=    16 NOB=    16 NVA=    35 NVB=    35

 **** Warning!!: The smallest alpha delta epsilon is  0.85118892D-01

 Symmetrizing basis deriv contribution to polar:
 IMax=3 JMax=2 DiffMx= 0.00D+00
   1 Symmetry operations used in ECPInt.
 ECPInt:  NShTT=     276 NPrTT=    1180 LenC2=     276 LenP2D=    1021.
 LDataN:  DoStor=T MaxTD1= 5 Len=  102
 Calling FoFJK, ICntrl=      2547 FMM=F ISym2X=0 I1Cent= 0 IOpClX= 0 NMat=1 NMatS=1 NMatT=0.
 -------------------------------------------------------------------
 Center     Atomic                   Forces (Hartrees/Bohr)
 Number     Number              X              Y              Z
 -------------------------------------------------------------------
      1        1           0.022847780    0.023476468    0.000000000
      2       16          -0.018445900    0.010859293   -0.000000000
      3        7          -0.021971530   -0.014782058    0.000000000
      4        8           0.017569649   -0.019553704   -0.000000000
 -------------------------------------------------------------------
 Cartesian Forces:  Max     0.023476468 RMS     0.015608861
 IRC-IRC-IRC-IRC-IRC-IRC-IRC-IRC-IRC-IRC-IRC-IRC-IRC-IRC-IRC-IRC-IRC-IRC
 Pt 11 Step number   1 out of a maximum of  20
 Modified Bulirsch-Stoer Extrapolation Cycles:
    EPS =    0.000010000000000
      PEZero:  N= 2 I= 1 D=  2.72D-04 Err=  6.40D-06
 Maximum DWI energy   std dev =  0.000002833 at pt    47
 Maximum DWI gradient std dev =  0.003563328 at pt    29
 CORRECTOR INTEGRATION CONVERGENCE:
   Recorrection delta-x convergence threshold:    0.010000
   Delta-x Convergence Met
 Point Number:  11          Path Number:   1
   CHANGE IN THE REACTION COORDINATE =    0.05224
   NET REACTION COORDINATE UP TO THIS POINT =    0.57371
  # OF POINTS ALONG THE PATH =  11
  # OF STEPS =   1

 Calculating another point on the path.
 IRC-IRC-IRC-IRC-IRC-IRC-IRC-IRC-IRC-IRC-IRC-IRC-IRC-IRC-IRC-IRC-IRC-IRC
                          Input orientation:                          
 ---------------------------------------------------------------------
 Center     Atomic      Atomic             Coordinates (Angstroms)
 Number     Number       Type             X           Y           Z
 ---------------------------------------------------------------------
      1          1           0        1.203887   -0.448478   -0.000000
      2         16           0       -0.682433   -0.678994    0.000000
      3          7           0        0.005031    0.828721   -0.000000
      4          8           0        1.283852    0.659976    0.000000
 ---------------------------------------------------------------------
                    Distance matrix (angstroms):
                    1          2          3          4
     1  H    0.000000
     2  S    1.900353   0.000000
     3  N    1.751712   1.657050   0.000000
     4  O    1.111335   2.378890   1.289906   0.000000
 Symmetry turned off by external request.
 Stoichiometry    HNOS
 Framework group  CS[SG(HNOS)]
 Deg. of freedom     5
 Full point group                 CS      NOp   2
 Rotational constants (GHZ):          58.2001985           7.7088497           6.8072077
 Standard basis: def2SVP (5D, 7F)
    51 basis functions,    94 primitive gaussians,    54 cartesian basis functions
    16 alpha electrons       16 beta electrons
       nuclear repulsion energy        97.5933706418 Hartrees.
 NAtoms=    4 NActive=    4 NUniq=    4 SFac= 1.00D+00 NAtFMM=   60 NAOKFM=F Big=F
 Integral buffers will be    131072 words long.
 Raffenetti 2 integral format.
 Two-electron integral symmetry is turned off.
 One-electron integrals computed using PRISM.
   1 Symmetry operations used in ECPInt.
 ECPInt:  NShTT=     276 NPrTT=    1180 LenC2=     276 LenP2D=    1019.
 LDataN:  DoStor=T MaxTD1= 4 Len=   56
 NBasis=    51 RedAO= T EigKep=  1.01D-02  NBF=    51
 NBsUse=    51 1.00D-06 EigRej= -1.00D+00 NBFU=    51
 Initial guess from the checkpoint file:  "test_irc.chk"
 B after Tr=     0.000537    0.000530    0.000000
         Rot=    1.000000    0.000000    0.000000   -0.000197 Ang=  -0.02 deg.
 ExpMin= 1.22D-01 ExpMax= 9.18D+03 ExpMxC= 1.38D+03 IAcc=3 IRadAn=         5 AccDes= 0.00D+00
 Harris functional with IExCor= 1009 and IRadAn=       5 diagonalized for initial guess.
 HarFok:  IExCor= 1009 AccDes= 0.00D+00 IRadAn=         5 IDoV= 1 UseB2=F ITyADJ=14
 ICtDFT=  3500011 ScaDFX=  1.000000  1.000000  1.000000  1.000000
 FoFCou: FMM=F IPFlag=           0 FMFlag=      100000 FMFlg1=           0
         NFxFlg=           0 DoJE=T BraDBF=F KetDBF=T FulRan=T
         wScrn=  0.000000 ICntrl=       500 IOpCl=  0 I1Cent=   200000004 NGrid=           0
         NMat0=    1 NMatS0=      1 NMatT0=    0 NMatD0=    1 NMtDS0=    0 NMtDT0=    0
 Symmetry not used in FoFCou.
 Keep J ints in memory in canonical form, NReq=1757006.
 Requested convergence on RMS density matrix=1.00D-08 within 128 cycles.
 Requested convergence on MAX density matrix=1.00D-06.
 Requested convergence on             energy=1.00D-06.
 No special actions if energy rises.
 Integral accuracy reduced to 1.0D-05 until final iterations.
 Initial convergence to 1.0D-05 achieved.  Increase integral accuracy.
 SCF Done:  E(RPBE-PBE) =  -528.133950159     A.U. after   13 cycles
            NFock= 13  Conv=0.37D-08     -V/T= 2.0027
[...]
 Modified Bulirsch-Stoer Extrapolation Cycles:
    EPS =    0.000010000000000
      PEZero:  N= 2 I= 1 D=  2.72D-04 Err=  2.79D-06
 Maximum DWI energy   std dev =  0.000000029 at pt    47
 Maximum DWI gradient std dev =  0.001628266 at pt    29
 CORRECTOR INTEGRATION CONVERGENCE:
   Recorrection delta-x convergence threshold:    0.010000
   Delta-x Convergence Met
 Point Number:  48          Path Number:   1
   CHANGE IN THE REACTION COORDINATE =    0.05224
   NET REACTION COORDINATE UP TO THIS POINT =    2.50169
  # OF POINTS ALONG THE PATH =  48
  # OF STEPS =   1

 Calculating another point on the path.
 IRC-IRC-IRC-IRC-IRC-IRC-IRC-IRC-IRC-IRC-IRC-IRC-IRC-IRC-IRC-IRC-IRC-IRC
                          Input orientation:                          
 ---------------------------------------------------------------------
 Center     Atomic      Atomic             Coordinates (Angstroms)
 Number     Number       Type             X           Y           Z
 ---------------------------------------------------------------------
      1          1           0        0.443423   -1.453688    0.000000
      2         16           0       -0.724059   -0.739892    0.000000
      3          7           0        0.125406    0.882219    0.000000
      4          8           0        1.309582    0.798195    0.000000
 ---------------------------------------------------------------------
                    Distance matrix (angstroms):
                    1          2          3          4
     1  H    0.000000
     2  S    1.368401   0.000000
     3  N    2.357456   1.831075   0.000000
     4  O    2.412717   2.549785   1.187153   0.000000
 Symmetry turned off by external request.
 Stoichiometry    HNOS
 Framework group  CS[SG(HNOS)]
 Deg. of freedom     5
 Full point group                 CS      NOp   2
 Rotational constants (GHZ):          64.2572635           6.5236803           5.9224110
 Standard basis: def2SVP (5D, 7F)
    51 basis functions,    94 primitive gaussians,    54 cartesian basis functions
    16 alpha electrons       16 beta electrons
       nuclear repulsion energy        93.4081424617 Hartrees.
 NAtoms=    4 NActive=    4 NUniq=    4 SFac= 1.00D+00 NAtFMM=   60 NAOKFM=F Big=F
 Integral buffers will be    131072 words long.
 Raffenetti 2 integral format.
 Two-electron integral symmetry is turned off.
 One-electron integrals computed using PRISM.
   1 Symmetry operations used in ECPInt.
 ECPInt:  NShTT=     276 NPrTT=    1180 LenC2=     276 LenP2D=    1007.
 LDataN:  DoStor=T MaxTD1= 4 Len=   56
 NBasis=    51 RedAO= T EigKep=  9.66D-03  NBF=    51
 NBsUse=    51 1.00D-06 EigRej= -1.00D+00 NBFU=    51
 Initial guess from the checkpoint file:  "test_irc.chk"
 B after Tr=    -0.000143   -0.000193   -0.000000
         Rot=    1.000000   -0.000000   -0.000000    0.000057 Ang=   0.01 deg.
 ExpMin= 1.22D-01 ExpMax= 9.18D+03 ExpMxC= 1.38D+03 IAcc=3 IRadAn=         5 AccDes= 0.00D+00
 Harris functional with IExCor= 1009 and IRadAn=       5 diagonalized for initial guess.
 HarFok:  IExCor= 1009 AccDes= 0.00D+00 IRadAn=         5 IDoV= 1 UseB2=F ITyADJ=14
 ICtDFT=  3500011 ScaDFX=  1.000000  1.000000  1.000000  1.000000
 FoFCou: FMM=F IPFlag=           0 FMFlag=      100000 FMFlg1=           0
         NFxFlg=           0 DoJE=T BraDBF=F KetDBF=T FulRan=T
         wScrn=  0.000000 ICntrl=       500 IOpCl=  0 I1Cent=   200000004 NGrid=           0
         NMat0=    1 NMatS0=      1 NMatT0=    0 NMatD0=    1 NMtDS0=    0 NMtDT0=    0
 Symmetry not used in FoFCou.
 Keep J ints in memory in canonical form, NReq=1757006.
 Requested convergence on RMS density matrix=1.00D-08 within 128 cycles.
 Requested convergence on MAX density matrix=1.00D-06.
 Requested convergence on             energy=1.00D-06.
 No special actions if energy rises.
 Integral accuracy reduced to 1.0D-05 until final iterations.
 EnCoef did     4 forward-backward iterations
 Initial convergence to 1.0D-05 achieved.  Increase integral accuracy.
 SCF Done:  E(RPBE-PBE) =  -528.163529391     A.U. after   12 cycles
            NFock= 12  Conv=0.39D-08     -V/T= 2.0028
 DoSCS=F DFT=T ScalE2(SS,OS)=  1.000000  1.000000
 Range of M.O.s used for correlation:     1    51
 NBasis=    51 NAE=    16 NBE=    16 NFC=     0 NFV=     0
 NROrb=     51 NOA=    16 NOB=    16 NVA=    35 NVB=    35

 **** Warning!!: The smallest alpha delta epsilon is  0.75775226D-01

 Symmetrizing basis deriv contribution to polar:
 IMax=3 JMax=2 DiffMx= 0.00D+00
   1 Symmetry operations used in ECPInt.
 ECPInt:  NShTT=     276 NPrTT=    1180 LenC2=     276 LenP2D=    1007.
 LDataN:  DoStor=T MaxTD1= 5 Len=  102
 Calling FoFJK, ICntrl=      2547 FMM=F ISym2X=0 I1Cent= 0 IOpClX= 0 NMat=1 NMatS=1 NMatT=0.
 -------------------------------------------------------------------
 Center     Atomic                   Forces (Hartrees/Bohr)
 Number     Number              X              Y              Z
 -------------------------------------------------------------------
      1        1          -0.000873100   -0.001151734   -0.000000000
      2       16          -0.012366980   -0.011682123    0.000000000
      3        7           0.006830032    0.002697214    0.000000000
      4        8           0.006410049    0.010136643   -0.000000000
 -------------------------------------------------------------------
 Cartesian Forces:  Max     0.012366980 RMS     0.006385319
 IRC-IRC-IRC-IRC-IRC-IRC-IRC-IRC-IRC-IRC-IRC-IRC-IRC-IRC-IRC-IRC-IRC-IRC
 Pt 49 Step number   1 out of a maximum of  20
 Modified Bulirsch-Stoer Extrapolation Cycles:
    EPS =    0.000010000000000
      PEZero:  N= 2 I= 1 D=  2.72D-04 Err=  2.94D-06
 Maximum DWI energy   std dev =  0.000000028 at pt    47
 Maximum DWI gradient std dev =  0.001740456 at pt    29
 CORRECTOR INTEGRATION CONVERGENCE:
   Recorrection delta-x convergence threshold:    0.010000
   Delta-x Convergence Met
 Point Number:  49          Path Number:   1
   CHANGE IN THE REACTION COORDINATE =    0.05224
   NET REACTION COORDINATE UP TO THIS POINT =    2.55393
  # OF POINTS ALONG THE PATH =  49
  # OF STEPS =   1

 Calculating another point on the path.
 IRC-IRC-IRC-IRC-IRC-IRC-IRC-IRC-IRC-IRC-IRC-IRC-IRC-IRC-IRC-IRC-IRC-IRC
                          Input orientation:                          
 ---------------------------------------------------------------------
 Center     Atomic      Atomic             Coordinates (Angstroms)
 Number     Number       Type             X           Y           Z
 ---------------------------------------------------------------------
      1          1           0        0.438539   -1.460071    0.000000
      2         16           0       -0.726245   -0.741964    0.000000
      3          7           0        0.128164    0.883336    0.000000
      4          8           0        1.311845    0.801761    0.000000
 ---------------------------------------------------------------------
                    Distance matrix (angstroms):
                    1          2          3          4
     1  H    0.000000
     2  S    1.368357   0.000000
     3  N    2.363871   1.836195   0.000000
     4  O    2.424571   2.556735   1.186489   0.000000
 Symmetry turned off by external request.
 Stoichiometry    HNOS
 Framework group  CS[SG(HNOS)]
 Deg. of freedom     5
 Full point group                 CS      NOp   2
 Rotational constants (GHZ):          64.4530259           6.4850595           5.8922046
 Standard basis: def2SVP (5D, 7F)
    51 basis functions,    94 primitive gaussians,    54 cartesian basis functions
    16 alpha electrons       16 beta electrons
       nuclear repulsion energy        93.2470062232 Hartrees.
 NAtoms=    4 NActive=    4 NUniq=    4 SFac= 1.00D+00 NAtFMM=   60 NAOKFM=F Big=F
 Integral buffers will be    131072 words long.
 Raffenetti 2 integral format.
 Two-electron integral symmetry is turned off.
 One-electron integrals computed using PRISM.
   1 Symmetry operations used in ECPInt.
 ECPInt:  NShTT=     276 NPrTT=    1180 LenC2=     276 LenP2D=    1007.
 LDataN:  DoStor=T MaxTD1= 4 Len=   56
 NBasis=    51 RedAO= T EigKep=  9.68D-03  NBF=    51
 NBsUse=    51 1.00D-06 EigRej= -1.00D+00 NBFU=    51
 Initial guess from the checkpoint file:  "test_irc.chk"
 B after Tr=    -0.000140   -0.000187   -0.000000
         Rot=    1.000000   -0.000000   -0.000000    0.000055 Ang=   0.01 deg.
 ExpMin= 1.22D-01 ExpMax= 9.18D+03 ExpMxC= 1.38D+03 IAcc=3 IRadAn=         5 AccDes= 0.00D+00
 Harris functional with IExCor= 1009 and IRadAn=       5 diagonalized for initial guess.
 HarFok:  IExCor= 1009 AccDes= 0.00D+00 IRadAn=         5 IDoV= 1 UseB2=F ITyADJ=14
 ICtDFT=  3500011 ScaDFX=  1.000000  1.000000  1.000000  1.000000
 FoFCou: FMM=F IPFlag=           0 FMFlag=      100000 FMFlg1=           0
         NFxFlg=           0 DoJE=T BraDBF=F KetDBF=T FulRan=T
         wScrn=  0.000000 ICntrl=       500 IOpCl=  0 I1Cent=   200000004 NGrid=           0
         NMat0=    1 NMatS0=      1 NMatT0=    0 NMatD0=    1 NMtDS0=    0 NMtDT0=    0
 Symmetry not used in FoFCou.
 Keep J ints in memory in canonical form, NReq=1757006.
 Requested convergence on RMS density matrix=1.00D-08 within 128 cycles.
 Requested convergence on MAX density matrix=1.00D-06.
 Requested convergence on             energy=1.00D-06.
 No special actions if energy rises.
 Integral accuracy reduced to 1.0D-05 until final iterations.
 EnCoef did     3 forward-backward iterations
 Initial convergence to 1.0D-05 achieved.  Increase integral accuracy.
 SCF Done:  E(RPBE-PBE) =  -528.163776850     A.U. after   12 cycles
            NFock= 12  Conv=0.39D-08     -V/T= 2.0029
 DoSCS=F DFT=T ScalE2(SS,OS)=  1.000000  1.000000
 Range of M.O.s used for correlation:     1    51
 NBasis=    51 NAE=    16 NBE=    16 NFC=     0 NFV=     0
 NROrb=     51 NOA=    16 NOB=    16 NVA=    35 NVB=    35

 **** Warning!!: The smallest alpha delta epsilon is  0.75857749D-01

 Symmetrizing basis deriv contribution to polar:
 IMax=3 JMax=2 DiffMx= 0.00D+00
   1 Symmetry operations used in ECPInt.
 ECPInt:  NShTT=     276 NPrTT=    1180 LenC2=     276 LenP2D=    1007.
 LDataN:  DoStor=T MaxTD1= 5 Len=  102
 Calling FoFJK, ICntrl=      2547 FMM=F ISym2X=0 I1Cent= 0 IOpClX= 0 NMat=1 NMatS=1 NMatT=0.
 -------------------------------------------------------------------
 Center     Atomic                   Forces (Hartrees/Bohr)
 Number     Number              X              Y              Z
 -------------------------------------------------------------------
      1        1          -0.000798405   -0.001043430    0.000000000
      2       16          -0.011607550   -0.011037715   -0.000000000
      3        7           0.006406874    0.002670650   -0.000000000
      4        8           0.005999081    0.009410495    0.000000000
 -------------------------------------------------------------------
 Cartesian Forces:  Max     0.011607550 RMS     0.005993186
 IRC-IRC-IRC-IRC-IRC-IRC-IRC-IRC-IRC-IRC-IRC-IRC-IRC-IRC-IRC-IRC-IRC-IRC
 Pt 50 Step number   1 out of a maximum of  20
 Modified Bulirsch-Stoer Extrapolation Cycles:
    EPS =    0.000010000000000
      PEZero:  N= 2 I= 1 D=  2.72D-04 Err=  3.05D-06
 Maximum DWI energy   std dev =  0.000000027 at pt    47
 Maximum DWI gradient std dev =  0.001866764 at pt    29
 CORRECTOR INTEGRATION CONVERGENCE:
   Recorrection delta-x convergence threshold:    0.010000
   Delta-x Convergence Met
 Point Number:  50          Path Number:   1
   CHANGE IN THE REACTION COORDINATE =    0.05224
   NET REACTION COORDINATE UP TO THIS POINT =    2.60618
  # OF POINTS ALONG THE PATH =  50
  # OF STEPS =   1

 Maximum number of steps reached.
 Calculation of FORWARD path complete.
 Reaction path calculation complete.
 
 Energies reported relative to the TS energy of        -528.119754
 --------------------------------------------------------------------------
    Summary of reaction path following
 --------------------------------------------------------------------------
                        Energy    RxCoord
   1                    0.00000   0.00000
   2                   -0.00010   0.04721
   3                   -0.00036   0.09865
   4                   -0.00083   0.15086
   5                   -0.00150   0.20310
   6                   -0.00235   0.25534
   7                   -0.00339   0.30758
   8                   -0.00458   0.35982
   9                   -0.00590   0.41207
  10                   -0.00734   0.46431
  11                   -0.00887   0.51655
  12                   -0.01047   0.56880
  13                   -0.01211   0.62104
  14                   -0.01378   0.67328
  15                   -0.01545   0.72552
  16                   -0.01710   0.77776
  17                   -0.01871   0.83000
  18                   -0.02028   0.88224
  19                   -0.02180   0.93448
  20                   -0.02325   0.98672
  21                   -0.02464   1.03895
  22                   -0.02596   1.09119
  23                   -0.02722   1.14343
  24                   -0.02840   1.19567
  25                   -0.02952   1.24791
  26                   -0.03058   1.30015
  27                   -0.03158   1.35239
  28                   -0.03251   1.40463
  29                   -0.03339   1.45686
  30                   -0.03421   1.50910
  31                   -0.03499   1.56134
  32                   -0.03572   1.61357
  33                   -0.03641   1.66581
  34                   -0.03705   1.71805
  35                   -0.03767   1.77029
  36                   -0.03825   1.82253
  37                   -0.03880   1.87477
  38                   -0.03932   1.92701
  39                   -0.03981   1.97925
  40                   -0.04028   2.03149
  41                   -0.04072   2.08373
  42                   -0.04114   2.13598
  43                   -0.04154   2.18822
  44                   -0.04192   2.24046
  45                   -0.04227   2.29271
  46                   -0.04261   2.34495
  47                   -0.04293   2.39720
  48                   -0.04323   2.44944
  49                   -0.04351   2.50169
  50                   -0.04378   2.55393
  51                   -0.04402   2.60618
 --------------------------------------------------------------------------
 
 Total number of points:                   50
 Total number of gradient calculations:    52
 Total number of Hessian calculations:      1
 IRC-IRC-IRC-IRC-IRC-IRC-IRC-IRC-IRC-IRC-IRC-IRC-IRC-IRC-IRC-IRC-IRC-IRC
                          Input orientation:                          
 ---------------------------------------------------------------------
 Center     Atomic      Atomic             Coordinates (Angstroms)
 Number     Number       Type             X           Y           Z
 ---------------------------------------------------------------------
      1          1           0        0.438539   -1.460071    0.000000
      2         16           0       -0.726245   -0.741964    0.000000
      3          7           0        0.128164    0.883336    0.000000
      4          8           0        1.311845    0.801761    0.000000
 ---------------------------------------------------------------------
                    Distance matrix (angstroms):
                    1          2          3          4
     1  H    0.000000
     2  S    1.368357   0.000000
     3  N    2.363871   1.836195   0.000000
     4  O    2.424571   2.556735   1.186489   0.000000
 Symmetry turned off by external request.
 Stoichiometry    HNOS
 Framework group  CS[SG(HNOS)]
 Deg. of freedom     5
 Full point group                 CS      NOp   2
 Rotational constants (GHZ):          64.4530259           6.4850595           5.8922046

 **********************************************************************

            Population analysis using the SCF Density.

 **********************************************************************

 Alpha  occ. eigenvalues --  -88.06194 -18.84133 -14.13677  -7.70769  -5.73586
 Alpha  occ. eigenvalues --   -5.73068  -5.72602  -1.10228  -0.72262  -0.57649
 Alpha  occ. eigenvalues --   -0.46083  -0.44447  -0.42576  -0.34748  -0.25362
 Alpha  occ. eigenvalues --   -0.21184
 Alpha virt. eigenvalues --   -0.13598  -0.05797   0.00929   0.23387   0.32397
 Alpha virt. eigenvalues --    0.35615   0.50402   0.52388   0.54369   0.55401
 Alpha virt. eigenvalues --    0.56729   0.62733   0.66753   0.75355   0.75927
 Alpha virt. eigenvalues --    0.78631   0.84134   0.90062   0.92343   0.96455
 Alpha virt. eigenvalues --    1.01648   1.23194   1.45950   1.48757   1.80280
 Alpha virt. eigenvalues --    1.85800   1.96848   2.08285   2.22894   2.52252
 Alpha virt. eigenvalues --    2.53103   2.55573   3.08468   3.11776   3.50998
          Condensed to atoms (all electrons):
               1          2          3          4
     1  H    0.650313   0.255748   0.001978   0.016173
     2  S    0.255748  15.708427   0.087347  -0.111343
     3  N    0.001978   0.087347   6.613925   0.319897
     4  O    0.016173  -0.111343   0.319897   7.887735
 Mulliken charges:
               1
     1  H    0.075788
     2  S    0.059820
     3  N   -0.023147
     4  O   -0.112461
 Sum of Mulliken charges =  -0.00000
 Mulliken charges with hydrogens summed into heavy atoms:
               1
     2  S    0.135608
     3  N   -0.023147
     4  O   -0.112461
 APT charges:
               1
     1  H    0.179989
     2  S    0.041959
     3  N   -0.325853
     4  O    0.103905
 Sum of APT charges =  -0.00000
 APT charges with hydrogens summed into heavy atoms:
               1
     2  S    0.221948
     3  N   -0.325853
     4  O    0.103905
 Electronic spatial extent (au):  <R**2>=            211.1738
 Charge=             -0.0000 electrons
 Dipole moment (field-independent basis, Debye):
    X=              0.1869    Y=             -1.2048    Z=             -0.0000  Tot=              1.2192
 Quadrupole moment (field-independent basis, Debye-Ang):
   XX=            -25.2511   YY=            -23.2809   ZZ=            -23.8835
   XY=             -1.3560   XZ=              0.0000   YZ=              0.0000
 Traceless Quadrupole moment (field-independent basis, Debye-Ang):
   XX=             -1.1126   YY=              0.8576   ZZ=              0.2550
   XY=             -1.3560   XZ=              0.0000   YZ=              0.0000
 Octapole moment (field-independent basis, Debye-Ang**2):
  XXX=              2.2669  YYY=             -0.0025  ZZZ=             -0.0000  XYY=              2.4175
  XXY=              0.9482  XXZ=             -0.0000  XZZ=              2.8099  YZZ=              2.8483
  YYZ=             -0.0000  XYZ=              0.0000
 Hexadecapole moment (field-independent basis, Debye-Ang**3):
 XXXX=           -120.5734 YYYY=           -116.2387 ZZZZ=            -24.1434 XXXY=            -40.0580
 XXXZ=              0.0000 YYYX=            -37.1165 YYYZ=              0.0000 ZZZX=              0.0000
 ZZZY=              0.0000 XXYY=            -40.4255 XXZZ=            -23.7302 YYZZ=            -23.9212
 XXYZ=             -0.0000 YYXZ=              0.0000 ZZXY=            -12.4500
 N-N= 9.324700622321D+01 E-N=-1.439319404735D+03  KE= 5.266614790141D+02
  Exact polarizability:   0.000   0.000   0.000   0.000   0.000   0.000
 Approx polarizability: 106.014  57.339 107.270  -0.000  -0.000  23.275

 This type of calculation cannot be archived.


 IF YOU BELIEVE CERTAIN WORDS, YOU BELIEVE THEIR HIDDEN ARGUMENTS.
 WHEN YOU BELIEVE SOMETHING IS RIGHT OR WRONG, TRUE OR FALSE, 
 YOU BELIEVE THE ASSUMPTIONS IN THE WORDS WHICH EXPRESS THE ARGUMENTS.
 SUCH ASSUMPTIONS ARE OFTEN FULL OF HOLES, BUT REMAIN MOST PRECIOUS 
 TO THE CONVINCED.

                 -- THE OPEN-ENDED PROOF FROM THE PANOPLIA PROPHETICA
                    CHILDREN OF DUNE BY FRANK HERBERT
 Job cpu time:       0 days  0 hours 13 minutes 31.6 seconds.
 Elapsed time:       0 days  0 hours 13 minutes 25.1 seconds.
 File lengths (MBytes):  RWF=      6 Int=      0 D2E=      0 Chk=      2 Scr=      1
 Normal termination of Gaussian 16 at Tue Jan 22 15:21:50 2019.
