 Entering Link 1 = /opt/g09/l1.exe PID=     17964.
  
 Copyright (c) 1988,1990,1992,1993,1995,1998,2003,2009,2010,
            Gaussian, Inc.  All Rights Reserved.
  
 This is part of the Gaussian(R) 09 program.  It is based on
 the Gaussian(R) 03 system (copyright 2003, Gaussian, Inc.),
 the Gaussian(R) 98 system (copyright 1998, Gaussian, Inc.),
 the Gaussian(R) 94 system (copyright 1995, Gaussian, Inc.),
 the Gaussian 92(TM) system (copyright 1992, Gaussian, Inc.),
 the Gaussian 90(TM) system (copyright 1990, Gaussian, Inc.),
 the Gaussian 88(TM) system (copyright 1988, Gaussian, Inc.),
 the Gaussian 86(TM) system (copyright 1986, Carnegie Mellon
 University), and the Gaussian 82(TM) system (copyright 1983,
 Carnegie Mellon University). Gaussian is a federally registered
 trademark of Gaussian, Inc.
  
 This software contains proprietary and confidential information,
 including trade secrets, belonging to Gaussian, Inc.
  
 This software is provided under written license and may be
 used, copied, transmitted, or stored only in accord with that
 written license.
  
 The following legend is applicable only to US Government
 contracts under FAR:
  
                    RESTRICTED RIGHTS LEGEND
  
 Use, reproduction and disclosure by the US Government is
 subject to restrictions as set forth in subparagraphs (a)
 and (c) of the Commercial Computer Software - Restricted
 Rights clause in FAR 52.227-19.
  
 Gaussian, Inc.
 340 Quinnipiac St., Bldg. 40, Wallingford CT 06492
  
  
 ---------------------------------------------------------------
 Warning -- This program may not be used in any manner that
 competes with the business of Gaussian, Inc. or will provide
 assistance to any competitor of Gaussian, Inc.  The licensee
 of this program is prohibited from giving any competitor of
 Gaussian, Inc. access to this program.  By using this program,
 the user acknowledges that Gaussian, Inc. is engaged in the
 business of creating and licensing software in the field of
 computational chemistry and represents and warrants to the
 licensee that it is not a competitor of Gaussian, Inc. and that
 it will not use this program in any manner prohibited above.
 ---------------------------------------------------------------
  

 Cite this work as:
 Gaussian 09, Revision B.01,
 M. J. Frisch, G. W. Trucks, H. B. Schlegel, G. E. Scuseria, 
 M. A. Robb, J. R. Cheeseman, G. Scalmani, V. Barone, B. Mennucci, 
 G. A. Petersson, H. Nakatsuji, M. Caricato, X. Li, H. P. Hratchian, 
 A. F. Izmaylov, J. Bloino, G. Zheng, J. L. Sonnenberg, M. Hada, 
 M. Ehara, K. Toyota, R. Fukuda, J. Hasegawa, M. Ishida, T. Nakajima, 
 Y. Honda, O. Kitao, H. Nakai, T. Vreven, J. A. Montgomery, Jr., 
 J. E. Peralta, F. Ogliaro, M. Bearpark, J. J. Heyd, E. Brothers, 
 K. N. Kudin, V. N. Staroverov, T. Keith, R. Kobayashi, J. Normand, 
 K. Raghavachari, A. Rendell, J. C. Burant, S. S. Iyengar, J. Tomasi, 
 M. Cossi, N. Rega, J. M. Millam, M. Klene, J. E. Knox, J. B. Cross, 
 V. Bakken, C. Adamo, J. Jaramillo, R. Gomperts, R. E. Stratmann, 
 O. Yazyev, A. J. Austin, R. Cammi, C. Pomelli, J. W. Ochterski, 
 R. L. Martin, K. Morokuma, V. G. Zakrzewski, G. A. Voth, 
 P. Salvador, J. J. Dannenberg, S. Dapprich, A. D. Daniels, 
 O. Farkas, J. B. Foresman, J. V. Ortiz, J. Cioslowski, 
 and D. J. Fox, Gaussian, Inc., Wallingford CT, 2010.
 
 ******************************************
 Gaussian 09:  EM64L-G09RevB.01 12-Aug-2010
                10-Jan-2015 
 ******************************************
 %NProcShared=4
 Will use up to    4 processors via shared memory.
 %Mem=2GB
 %chk=sp_003.chk
 --------------------------------------------------------
 #P b3lyp/def2TZVPP pop=NBORead scf=(tight) int=Ultrafine
 --------------------------------------------------------
 1/38=1/1;
 2/12=2,17=6,18=5,40=1/2;
 3/5=44,7=202,11=2,16=1,25=1,30=1,74=-5,75=-5/1,2,3;
 4//1;
 5/5=2,32=2,38=5/2;
 6/7=2,8=2,9=2,10=2,28=1,40=1/1,7;
 99/5=1,9=1/99;
 Leave Link    1 at Sat Jan 10 12:21:02 2015, MaxMem=  268435456 cpu:       0.1
 (Enter /opt/g09/l101.exe)
 ----------------------------------------------------------
 Single Point computation for reaction coordinate: -2.58535
 ----------------------------------------------------------
 Symbolic Z-matrix:
 Charge =  0 Multiplicity = 1
 6                    -0.02269   0.43924   0. 
 8                    -1.12921  -0.04908   0. 
 7                     1.08425  -0.33584   0. 
 1                     0.17276   1.52515   0. 
 1                     2.02194   0.02139   0. 
 1                     0.93199  -1.33127   0. 
 
 NAtoms=      6 NQM=      6 NQMF=      0 NMic=      0 NMicF=      0 NTot=      6.
                    Isotopes and Nuclear Properties:
 (Nuclear quadrupole moments (NQMom) in fm**2, nuclear magnetic moments (NMagM)
  in nuclear magnetons)

  Atom         1           2           3           4           5           6
 IAtWgt=          12          16          14           1           1           1
 AtmWgt=  12.0000000  15.9949146  14.0030740   1.0078250   1.0078250   1.0078250
 NucSpn=           0           0           2           1           1           1
 AtZEff=   0.0000000   0.0000000   0.0000000   0.0000000   0.0000000   0.0000000
 NQMom=    0.0000000   0.0000000   2.0440000   0.0000000   0.0000000   0.0000000
 NMagM=    0.0000000   0.0000000   0.4037610   2.7928460   2.7928460   2.7928460
 Leave Link  101 at Sat Jan 10 12:21:02 2015, MaxMem=  268435456 cpu:       0.2
 (Enter /opt/g09/l202.exe)
                          Input orientation:                          
 ---------------------------------------------------------------------
 Center     Atomic      Atomic             Coordinates (Angstroms)
 Number     Number       Type             X           Y           Z
 ---------------------------------------------------------------------
      1          6           0       -0.022685    0.439239    0.000000
      2          8           0       -1.129211   -0.049077    0.000000
      3          7           0        1.084247   -0.335843    0.000000
      4          1           0        0.172756    1.525150    0.000000
      5          1           0        2.021940    0.021386    0.000000
      6          1           0        0.931987   -1.331271    0.000000
 ---------------------------------------------------------------------
                    Distance matrix (angstroms):
                    1          2          3          4          5
     1  C    0.000000
     2  O    1.209484   0.000000
     3  N    1.351314   2.231957   0.000000
     4  H    1.103358   2.042868   2.072224   0.000000
     5  H    2.086886   3.151939   1.003434   2.383440   0.000000
     6  H    2.011493   2.427459   1.007005   2.955600   1.737147
                    6
     6  H    0.000000
 Stoichiometry    CH3NO
 Framework group  CS[SG(CH3NO)]
 Deg. of freedom     9
 Full point group                 CS      NOp   2
 Largest Abelian subgroup         CS      NOp   2
 Largest concise Abelian subgroup C1      NOp   1
                         Standard orientation:                         
 ---------------------------------------------------------------------
 Center     Atomic      Atomic             Coordinates (Angstroms)
 Number     Number       Type             X           Y           Z
 ---------------------------------------------------------------------
      1          6           0        0.000000    0.443417    0.000000
      2          8           0        1.180905    0.182042    0.000000
      3          7           0       -0.933057   -0.534057    0.000000
      4          1           0       -0.405002    1.469757    0.000000
      5          1           0       -1.922662   -0.368039    0.000000
      6          1           0       -0.588173   -1.480162    0.000000
 ---------------------------------------------------------------------
 Rotational constants (GHZ):     69.6027371     11.8377166     10.1170541
 Leave Link  202 at Sat Jan 10 12:21:02 2015, MaxMem=  268435456 cpu:       0.0
 (Enter /opt/g09/l301.exe)
 Standard basis: def2TZVPP (5D, 7F)
 Ernie: Thresh=  0.10000D-02 Tol=  0.10000D-05 Strict=F.
 There are    93 symmetry adapted basis functions of A'  symmetry.
 There are    42 symmetry adapted basis functions of A"  symmetry.
 Integral buffers will be    131072 words long.
 Raffenetti 2 integral format.
 Two-electron integral symmetry is turned on.
   135 basis functions,   204 primitive gaussians,   153 cartesian basis functions
    12 alpha electrons       12 beta electrons
       nuclear repulsion energy        71.7256861978 Hartrees.
 IExCor=  402 DFT=T Ex+Corr=B3LYP ExCW=0 ScaHFX=  0.200000
 ScaDFX=  0.800000  0.720000  1.000000  0.810000 ScalE2=  1.000000  1.000000
 IRadAn=      5 IRanWt=     -1 IRanGd=            0 ICorTp=0
 NAtoms=    6 NActive=    6 NUniq=    6 SFac= 1.00D+00 NAtFMM=   50 NAOKFM=F Big=F
 Leave Link  301 at Sat Jan 10 12:21:02 2015, MaxMem=  268435456 cpu:       0.2
 (Enter /opt/g09/l302.exe)
 NPDir=0 NMtPBC=     1 NCelOv=     1 NCel=       1 NClECP=     1 NCelD=      1
         NCelK=      1 NCelE2=     1 NClLst=     1 CellRange=     0.0.
 One-electron integrals computed using PRISM.
   1 Symmetry operations used in ECPInt.
 ECPInt:  NShTT=    1326 NPrTT=    3645 LenC2=    1323 LenP2D=    3288.
 LDataN:  DoStor=T MaxTD1= 6 Len=  172
 NBasis=   135 RedAO= T  NBF=    93    42
 NBsUse=   135 1.00D-06 NBFU=    93    42
 Precomputing XC quadrature grid using
 IXCGrd= 2 IRadAn=           5 IRanWt=          -1 IRanGd=           0 AccXCQ= 0.00D+00.
 NRdTot=     495 NPtTot=      131888 NUsed=      135444 NTot=      135476
 NSgBfM=   153   153   153   153   153 NAtAll=     6     6.
 Leave Link  302 at Sat Jan 10 12:21:03 2015, MaxMem=  268435456 cpu:       0.9
 (Enter /opt/g09/l303.exe)
 DipDrv:  MaxL=1.
 Leave Link  303 at Sat Jan 10 12:21:03 2015, MaxMem=  268435456 cpu:       0.1
 (Enter /opt/g09/l401.exe)
 Harris functional with IExCor=  402 diagonalized for initial guess.
 ExpMin= 9.52D-02 ExpMax= 2.70D+04 ExpMxC= 9.22D+02 IAcc=3 IRadAn=         5 AccDes= 0.00D+00
 HarFok:  IExCor=  402 AccDes= 0.00D+00 IRadAn=         5 IDoV= 1
 ScaDFX=  1.000000  1.000000  1.000000  1.000000
 FoFCou: FMM=F IPFlag=           0 FMFlag=      100000 FMFlg1=           0
         NFxFlg=           0 DoJE=T BraDBF=F KetDBF=T FulRan=T
         Omega=  0.000000  0.000000  1.000000  0.000000  0.000000 ICntrl=     500 IOpCl=  0
         NMat0=    1 NMatS0=    1 NMatT0=    0 NMatD0=    1 NMtDS0=    0 NMtDT0=    0
         I1Cent=           4 NGrid=           0.
 Petite list used in FoFCou.
 Harris En= -169.991274362566    
 Initial guess orbital symmetries:
       Occupied  (A') (A') (A') (A') (A') (A') (A') (A') (A') (A")
                 (A') (A")
       Virtual   (A") (A') (A') (A') (A') (A') (A") (A') (A') (A')
                 (A') (A") (A') (A') (A') (A") (A') (A') (A") (A')
                 (A") (A') (A') (A") (A') (A') (A') (A") (A") (A')
                 (A') (A') (A') (A') (A") (A') (A') (A") (A") (A')
                 (A') (A') (A") (A') (A') (A") (A') (A') (A") (A')
                 (A') (A') (A") (A') (A") (A') (A') (A") (A') (A')
                 (A") (A') (A') (A") (A') (A") (A') (A') (A') (A")
                 (A") (A') (A') (A") (A') (A') (A") (A') (A") (A")
                 (A') (A') (A') (A") (A') (A") (A') (A') (A') (A')
                 (A") (A') (A") (A") (A') (A') (A') (A") (A') (A")
                 (A') (A') (A") (A') (A") (A') (A') (A") (A') (A")
                 (A') (A") (A') (A') (A') (A') (A") (A') (A') (A')
                 (A') (A') (A')
 The electronic state of the initial guess is 1-A'.
 Leave Link  401 at Sat Jan 10 12:21:03 2015, MaxMem=  268435456 cpu:       2.6
 (Enter /opt/g09/l502.exe)
 Closed shell SCF:
 Requested convergence on RMS density matrix=1.00D-08 within 128 cycles.
 Requested convergence on MAX density matrix=1.00D-06.
 Requested convergence on             energy=1.00D-06.
 No special actions if energy rises.
 Using DIIS extrapolation, IDIIS=  1040.
 Integral symmetry usage will be decided dynamically.
       135377 words used for storage of precomputed grid.
 Keep R1 ints in memory in canonical form, NReq=71567720.
 IEnd=      225835 IEndB=      225835 NGot=   268435456 MDV=   198847925
 LenX=   198847925 LenY=   198824075
 Symmetry not used in FoFDir.
 MinBra= 0 MaxBra= 3 Meth= 1.
 IRaf=       0 NMat=   1 IRICut=       1 DoRegI=T DoRafI=F ISym2E= 0 JSym2E=0.
 Integral accuracy reduced to 1.0D-05 until final iterations.

 Cycle   1  Pass 0  IDiag  1:
 E= -169.859279812408    
 DIIS: error= 3.79D-02 at cycle   1 NSaved=   1.
 NSaved= 1 IEnMin= 1 EnMin= -169.859279812408     IErMin= 1 ErrMin= 3.79D-02
 ErrMax= 3.79D-02 EMaxC= 1.00D-01 BMatC= 1.55D-01 BMatP= 1.55D-01
 IDIUse=3 WtCom= 6.21D-01 WtEn= 3.79D-01
 Coeff-Com:  0.100D+01
 Coeff-En:   0.100D+01
 Coeff:      0.100D+01
 Gap=     0.138 Goal=   None    Shift=    0.000
 GapD=    0.138 DampG=1.000 DampE=0.500 DampFc=0.5000 IDamp=-1.
 Damping current iteration by 5.00D-01
 RMSDP=1.06D-02 MaxDP=5.63D-01              OVMax= 2.97D-01

 Cycle   2  Pass 0  IDiag  1:
 E= -169.862875348685     Delta-E=       -0.003595536276 Rises=F Damp=T
 DIIS: error= 1.42D-02 at cycle   2 NSaved=   2.
 NSaved= 2 IEnMin= 2 EnMin= -169.862875348685     IErMin= 2 ErrMin= 1.42D-02
 ErrMax= 1.42D-02 EMaxC= 1.00D-01 BMatC= 3.79D-02 BMatP= 1.55D-01
 IDIUse=3 WtCom= 8.58D-01 WtEn= 1.42D-01
 Coeff-Com:  0.298D+00 0.702D+00
 Coeff-En:   0.488D+00 0.512D+00
 Coeff:      0.325D+00 0.675D+00
 Gap=     0.268 Goal=   None    Shift=    0.000
 RMSDP=3.72D-03 MaxDP=2.20D-01 DE=-3.60D-03 OVMax= 2.24D-01

 Cycle   3  Pass 0  IDiag  1:
 E= -169.956038064987     Delta-E=       -0.093162716302 Rises=F Damp=F
 DIIS: error= 1.51D-02 at cycle   3 NSaved=   3.
 NSaved= 3 IEnMin= 3 EnMin= -169.956038064987     IErMin= 2 ErrMin= 1.42D-02
 ErrMax= 1.51D-02 EMaxC= 1.00D-01 BMatC= 2.14D-02 BMatP= 3.79D-02
 IDIUse=3 WtCom= 8.49D-01 WtEn= 1.51D-01
 Coeff-Com:  0.134D+00 0.434D+00 0.433D+00
 Coeff-En:   0.000D+00 0.000D+00 0.100D+01
 Coeff:      0.113D+00 0.368D+00 0.519D+00
 Gap=     0.270 Goal=   None    Shift=    0.000
 RMSDP=8.29D-04 MaxDP=2.46D-02 DE=-9.32D-02 OVMax= 8.11D-02

 Cycle   4  Pass 0  IDiag  1:
 E= -169.969535942684     Delta-E=       -0.013497877697 Rises=F Damp=F
 DIIS: error= 6.51D-03 at cycle   4 NSaved=   4.
 NSaved= 4 IEnMin= 4 EnMin= -169.969535942684     IErMin= 4 ErrMin= 6.51D-03
 ErrMax= 6.51D-03 EMaxC= 1.00D-01 BMatC= 4.76D-03 BMatP= 2.14D-02
 IDIUse=3 WtCom= 9.35D-01 WtEn= 6.51D-02
 Coeff-Com:  0.787D-02 0.576D-01 0.328D+00 0.607D+00
 Coeff-En:   0.000D+00 0.000D+00 0.219D+00 0.781D+00
 Coeff:      0.736D-02 0.538D-01 0.320D+00 0.618D+00
 Gap=     0.277 Goal=   None    Shift=    0.000
 RMSDP=3.23D-04 MaxDP=8.92D-03 DE=-1.35D-02 OVMax= 2.64D-02

 Cycle   5  Pass 0  IDiag  1:
 E= -169.973114339965     Delta-E=       -0.003578397281 Rises=F Damp=F
 DIIS: error= 7.34D-04 at cycle   5 NSaved=   5.
 NSaved= 5 IEnMin= 5 EnMin= -169.973114339965     IErMin= 5 ErrMin= 7.34D-04
 ErrMax= 7.34D-04 EMaxC= 1.00D-01 BMatC= 8.97D-05 BMatP= 4.76D-03
 IDIUse=3 WtCom= 9.93D-01 WtEn= 7.34D-03
 Coeff-Com: -0.224D-02 0.333D-02 0.125D+00 0.289D+00 0.586D+00
 Coeff-En:   0.000D+00 0.000D+00 0.000D+00 0.000D+00 0.100D+01
 Coeff:     -0.222D-02 0.331D-02 0.124D+00 0.286D+00 0.589D+00
 Gap=     0.278 Goal=   None    Shift=    0.000
 RMSDP=5.78D-05 MaxDP=1.28D-03 DE=-3.58D-03 OVMax= 3.57D-03

 Cycle   6  Pass 0  IDiag  1:
 E= -169.973191785271     Delta-E=       -0.000077445306 Rises=F Damp=F
 DIIS: error= 2.04D-04 at cycle   6 NSaved=   6.
 NSaved= 6 IEnMin= 6 EnMin= -169.973191785271     IErMin= 6 ErrMin= 2.04D-04
 ErrMax= 2.04D-04 EMaxC= 1.00D-01 BMatC= 5.71D-06 BMatP= 8.97D-05
 IDIUse=3 WtCom= 9.98D-01 WtEn= 2.04D-03
 Coeff-Com: -0.675D-03-0.261D-02 0.278D-01 0.672D-01 0.251D+00 0.657D+00
 Coeff-En:   0.000D+00 0.000D+00 0.000D+00 0.000D+00 0.000D+00 0.100D+01
 Coeff:     -0.674D-03-0.261D-02 0.278D-01 0.671D-01 0.250D+00 0.658D+00
 Gap=     0.278 Goal=   None    Shift=    0.000
 RMSDP=1.89D-05 MaxDP=6.84D-04 DE=-7.74D-05 OVMax= 6.50D-04

 Cycle   7  Pass 0  IDiag  1:
 E= -169.973196787280     Delta-E=       -0.000005002009 Rises=F Damp=F
 DIIS: error= 3.03D-05 at cycle   7 NSaved=   7.
 NSaved= 7 IEnMin= 7 EnMin= -169.973196787280     IErMin= 7 ErrMin= 3.03D-05
 ErrMax= 3.03D-05 EMaxC= 1.00D-01 BMatC= 1.10D-07 BMatP= 5.71D-06
 IDIUse=1 WtCom= 1.00D+00 WtEn= 0.00D+00
 Coeff-Com:  0.133D-03-0.958D-03 0.980D-03 0.146D-02 0.350D-01 0.129D+00
 Coeff-Com:  0.835D+00
 Coeff:      0.133D-03-0.958D-03 0.980D-03 0.146D-02 0.350D-01 0.129D+00
 Coeff:      0.835D+00
 Gap=     0.278 Goal=   None    Shift=    0.000
 RMSDP=2.99D-06 MaxDP=9.78D-05 DE=-5.00D-06 OVMax= 1.24D-04

 Initial convergence to 1.0D-05 achieved.  Increase integral accuracy.
 Cycle   8  Pass 1  IDiag  1:
 E= -169.973195604596     Delta-E=        0.000001182684 Rises=F Damp=F
 DIIS: error= 5.28D-06 at cycle   1 NSaved=   1.
 NSaved= 1 IEnMin= 1 EnMin= -169.973195604596     IErMin= 1 ErrMin= 5.28D-06
 ErrMax= 5.28D-06 EMaxC= 1.00D-01 BMatC= 3.86D-09 BMatP= 3.86D-09
 IDIUse=1 WtCom= 1.00D+00 WtEn= 0.00D+00
 Coeff-Com:  0.100D+01
 Coeff:      0.100D+01
 Gap=     0.278 Goal=   None    Shift=    0.000
 RMSDP=2.99D-06 MaxDP=9.78D-05 DE= 1.18D-06 OVMax= 4.47D-05

 Cycle   9  Pass 1  IDiag  1:
 E= -169.973195603520     Delta-E=        0.000000001077 Rises=F Damp=F
 DIIS: error= 7.60D-06 at cycle   2 NSaved=   2.
 NSaved= 2 IEnMin= 1 EnMin= -169.973195604596     IErMin= 1 ErrMin= 5.28D-06
 ErrMax= 7.60D-06 EMaxC= 1.00D-01 BMatC= 5.93D-09 BMatP= 3.86D-09
 IDIUse=1 WtCom= 1.00D+00 WtEn= 0.00D+00
 Coeff-Com:  0.560D+00 0.440D+00
 Coeff:      0.560D+00 0.440D+00
 Gap=     0.278 Goal=   None    Shift=    0.000
 RMSDP=5.88D-07 MaxDP=1.89D-05 DE= 1.08D-09 OVMax= 4.26D-05

 Cycle  10  Pass 1  IDiag  1:
 E= -169.973195607556     Delta-E=       -0.000000004036 Rises=F Damp=F
 DIIS: error= 3.24D-06 at cycle   3 NSaved=   3.
 NSaved= 3 IEnMin= 3 EnMin= -169.973195607556     IErMin= 3 ErrMin= 3.24D-06
 ErrMax= 3.24D-06 EMaxC= 1.00D-01 BMatC= 1.13D-09 BMatP= 3.86D-09
 IDIUse=1 WtCom= 1.00D+00 WtEn= 0.00D+00
 Coeff-Com:  0.224D+00 0.309D+00 0.467D+00
 Coeff:      0.224D+00 0.309D+00 0.467D+00
 Gap=     0.278 Goal=   None    Shift=    0.000
 RMSDP=1.61D-07 MaxDP=4.73D-06 DE=-4.04D-09 OVMax= 9.95D-06

 Cycle  11  Pass 1  IDiag  1:
 E= -169.973195608350     Delta-E=       -0.000000000794 Rises=F Damp=F
 DIIS: error= 4.69D-07 at cycle   4 NSaved=   4.
 NSaved= 4 IEnMin= 4 EnMin= -169.973195608350     IErMin= 4 ErrMin= 4.69D-07
 ErrMax= 4.69D-07 EMaxC= 1.00D-01 BMatC= 3.00D-11 BMatP= 1.13D-09
 IDIUse=1 WtCom= 1.00D+00 WtEn= 0.00D+00
 Coeff-Com:  0.463D-01 0.108D+00 0.186D+00 0.660D+00
 Coeff:      0.463D-01 0.108D+00 0.186D+00 0.660D+00
 Gap=     0.278 Goal=   None    Shift=    0.000
 RMSDP=3.20D-08 MaxDP=7.93D-07 DE=-7.94D-10 OVMax= 2.56D-06

 Cycle  12  Pass 1  IDiag  1:
 E= -169.973195608370     Delta-E=       -0.000000000020 Rises=F Damp=F
 DIIS: error= 2.58D-07 at cycle   5 NSaved=   5.
 NSaved= 5 IEnMin= 5 EnMin= -169.973195608370     IErMin= 5 ErrMin= 2.58D-07
 ErrMax= 2.58D-07 EMaxC= 1.00D-01 BMatC= 6.90D-12 BMatP= 3.00D-11
 IDIUse=1 WtCom= 1.00D+00 WtEn= 0.00D+00
 Coeff-Com: -0.113D-01 0.938D-02 0.114D-01 0.342D+00 0.648D+00
 Coeff:     -0.113D-01 0.938D-02 0.114D-01 0.342D+00 0.648D+00
 Gap=     0.278 Goal=   None    Shift=    0.000
 RMSDP=1.84D-08 MaxDP=6.80D-07 DE=-2.04D-11 OVMax= 9.14D-07

 Cycle  13  Pass 1  IDiag  1:
 E= -169.973195608375     Delta-E=       -0.000000000005 Rises=F Damp=F
 DIIS: error= 5.16D-08 at cycle   6 NSaved=   6.
 NSaved= 6 IEnMin= 6 EnMin= -169.973195608375     IErMin= 6 ErrMin= 5.16D-08
 ErrMax= 5.16D-08 EMaxC= 1.00D-01 BMatC= 3.88D-13 BMatP= 6.90D-12
 IDIUse=1 WtCom= 1.00D+00 WtEn= 0.00D+00
 Coeff-Com: -0.816D-02-0.192D-02-0.766D-02 0.115D+00 0.304D+00 0.599D+00
 Coeff:     -0.816D-02-0.192D-02-0.766D-02 0.115D+00 0.304D+00 0.599D+00
 Gap=     0.278 Goal=   None    Shift=    0.000
 RMSDP=3.35D-09 MaxDP=9.31D-08 DE=-5.34D-12 OVMax= 1.48D-07

 SCF Done:  E(RB3LYP) =  -169.973195608     A.U. after   13 cycles
             Convg  =    0.3353D-08             -V/T =  2.0043
 KE= 1.692401575774D+02 PE=-5.422296552033D+02 EE= 1.312906158198D+02
 Leave Link  502 at Sat Jan 10 12:21:12 2015, MaxMem=  268435456 cpu:      34.6
 (Enter /opt/g09/l601.exe)
 Copying SCF densities to generalized density rwf, IOpCl= 0 IROHF=0.

 **********************************************************************

            Population analysis using the SCF density.

 **********************************************************************

 Orbital symmetries:
       Occupied  (A') (A') (A') (A') (A') (A') (A') (A') (A') (A")
                 (A") (A')
       Virtual   (A") (A') (A') (A') (A') (A') (A") (A') (A') (A')
                 (A") (A') (A') (A') (A') (A") (A') (A') (A") (A')
                 (A") (A') (A') (A") (A') (A') (A') (A") (A") (A')
                 (A') (A') (A') (A') (A') (A") (A') (A") (A") (A')
                 (A') (A') (A") (A') (A') (A") (A') (A') (A") (A')
                 (A') (A') (A') (A") (A") (A') (A') (A") (A') (A')
                 (A") (A') (A') (A") (A") (A') (A') (A') (A') (A")
                 (A") (A') (A') (A") (A') (A') (A") (A") (A') (A")
                 (A') (A') (A') (A") (A') (A") (A') (A') (A') (A')
                 (A") (A') (A") (A") (A') (A') (A') (A") (A') (A')
                 (A") (A') (A") (A') (A') (A") (A') (A") (A') (A")
                 (A') (A') (A") (A') (A') (A') (A") (A') (A') (A')
                 (A') (A') (A')
 The electronic state is 1-A'.
 Alpha  occ. eigenvalues --  -19.09953 -14.34902 -10.27838  -1.04822  -0.91773
 Alpha  occ. eigenvalues --   -0.63550  -0.57026  -0.49087  -0.42446  -0.41808
 Alpha  occ. eigenvalues --   -0.28649  -0.27034
 Alpha virt. eigenvalues --    0.00813   0.02269   0.05672   0.10003   0.13661
 Alpha virt. eigenvalues --    0.18008   0.20933   0.25205   0.30313   0.35801
 Alpha virt. eigenvalues --    0.35990   0.37319   0.41390   0.44388   0.47162
 Alpha virt. eigenvalues --    0.49794   0.50409   0.50684   0.58421   0.64231
 Alpha virt. eigenvalues --    0.66421   0.68965   0.73901   0.79207   0.87142
 Alpha virt. eigenvalues --    0.89655   0.93092   0.98059   1.03303   1.05279
 Alpha virt. eigenvalues --    1.14711   1.19413   1.25309   1.32791   1.35512
 Alpha virt. eigenvalues --    1.35729   1.41357   1.43790   1.48045   1.49827
 Alpha virt. eigenvalues --    1.51699   1.59835   1.72956   1.74174   1.86723
 Alpha virt. eigenvalues --    1.97280   2.00203   2.09206   2.15216   2.20616
 Alpha virt. eigenvalues --    2.26239   2.43757   2.57992   2.61242   2.67631
 Alpha virt. eigenvalues --    2.69025   2.78483   2.80804   2.86723   2.89695
 Alpha virt. eigenvalues --    2.93362   2.97143   3.01562   3.05032   3.11215
 Alpha virt. eigenvalues --    3.12496   3.19395   3.26803   3.32359   3.33790
 Alpha virt. eigenvalues --    3.42961   3.44174   3.45803   3.48344   3.59120
 Alpha virt. eigenvalues --    3.65960   3.68850   3.73574   3.74754   3.86868
 Alpha virt. eigenvalues --    3.89007   4.02472   4.04225   4.05452   4.12190
 Alpha virt. eigenvalues --    4.13283   4.19297   4.31720   4.35899   4.49231
 Alpha virt. eigenvalues --    4.54223   4.62009   4.67967   4.70899   4.74021
 Alpha virt. eigenvalues --    4.87682   4.94025   5.03784   5.11666   5.22225
 Alpha virt. eigenvalues --    5.24476   5.26702   5.50211   5.52155   5.63550
 Alpha virt. eigenvalues --    5.63730   5.80000   5.82905   5.98462   6.16451
 Alpha virt. eigenvalues --    6.24625   6.36951   6.37948   6.45264   6.57940
 Alpha virt. eigenvalues --    6.59770   6.80168   6.99927   7.08495   7.24125
 Alpha virt. eigenvalues --   23.53680  32.69400  43.73942
          Condensed to atoms (all electrons):
              1          2          3          4          5          6
     1  C    4.425415   0.681810   0.289862   0.434468  -0.010679  -0.004360
     2  O    0.681810   7.841244  -0.150043  -0.054929   0.006660   0.016738
     3  N    0.289862  -0.150043   6.572370  -0.128629   0.349807   0.314503
     4  H    0.434468  -0.054929  -0.128629   0.665865   0.006243   0.014745
     5  H   -0.010679   0.006660   0.349807   0.006243   0.509710  -0.025281
     6  H   -0.004360   0.016738   0.314503   0.014745  -0.025281   0.503569
 Mulliken atomic charges:
              1
     1  C    0.183485
     2  O   -0.341479
     3  N   -0.247869
     4  H    0.062236
     5  H    0.163541
     6  H    0.180086
 Sum of Mulliken atomic charges =   0.00000
 Mulliken charges with hydrogens summed into heavy atoms:
              1
     1  C    0.245721
     2  O   -0.341479
     3  N    0.095758
 Sum of Mulliken charges with hydrogens summed into heavy atoms =   0.00000
 Electronic spatial extent (au):  <R**2>=            143.8339
 Charge=              0.0000 electrons
 Dipole moment (field-independent basis, Debye):
    X=             -3.8487    Y=             -0.5052    Z=              0.0000  Tot=              3.8817
 Quadrupole moment (field-independent basis, Debye-Ang):
   XX=            -18.5435   YY=            -14.8972   ZZ=            -18.8791
   XY=              0.0437   XZ=              0.0000   YZ=              0.0000
 Traceless Quadrupole moment (field-independent basis, Debye-Ang):
   XX=             -1.1036   YY=              2.5428   ZZ=             -1.4391
   XY=              0.0437   XZ=              0.0000   YZ=              0.0000
 Octapole moment (field-independent basis, Debye-Ang**2):
  XXX=            -11.8359  YYY=             -4.1664  ZZZ=              0.0000  XYY=             -1.6748
  XXY=             -2.2269  XXZ=              0.0000  XZZ=              1.3138  YZZ=              0.2616
  YYZ=              0.0000  XYZ=              0.0000
 Hexadecapole moment (field-independent basis, Debye-Ang**3):
 XXXX=            -94.8628 YYYY=            -41.4574 ZZZZ=            -17.9452 XXXY=            -11.8412
 XXXZ=              0.0000 YYYX=            -11.4190 YYYZ=              0.0000 ZZZX=              0.0000
 ZZZY=              0.0000 XXYY=            -26.6754 XXZZ=            -22.2660 YYZZ=            -12.0364
 XXYZ=              0.0000 YYXZ=              0.0000 ZZXY=             -4.9756
 N-N= 7.172568619781D+01 E-N=-5.422296486340D+02  KE= 1.692401575774D+02
 Symmetry A'   KE= 1.621573870978D+02
 Symmetry A"   KE= 7.082770479599D+00
 No NMR shielding tensors so no spin-rotation constants.
 Leave Link  601 at Sat Jan 10 12:21:12 2015, MaxMem=  268435456 cpu:       0.8
 (Enter /opt/g09/l607.exe)
 Leave Link  607 at Sat Jan 10 12:21:13 2015, MaxMem=  268435456 cpu:       2.9
 (Enter /opt/g09/l9999.exe)
 1\1\GINC-NODE007\SP\RB3LYP\def2TZVPP\C1H3N1O1\STVOGT\10-Jan-2015\0\\#P
  b3lyp/def2TZVPP pop=NBORead scf=(tight) int=Ultrafine\\Single Point c
 omputation for reaction coordinate: -2.58535\\0,1\C,0,-0.022685,0.4392
 39,0.\O,0,-1.129211,-0.049077,0.\N,0,1.084247,-0.335843,0.\H,0,0.17275
 6,1.52515,0.\H,0,2.02194,0.021386,0.\H,0,0.931987,-1.331271,0.\\Versio
 n=EM64L-G09RevB.01\State=1-A'\HF=-169.9731956\RMSD=3.353e-09\Dipole=1.
 523728,0.1026205,0.\Quadrupole=-0.7033209,1.7732821,-1.0699612,-0.5522
 997,0.,0.\PG=CS [SG(C1H3N1O1)]\\@


 EXPERIENCE IS A WONDERFUL THING.  IT ENABLES
 YOU TO RECOGNIZE A MISTAKE WHEN YOU MAKE IT AGAIN.
           - BACK OF A SUGAR PACKET
 Job cpu time:  0 days  0 hours  0 minutes 42.5 seconds.
 File lengths (MBytes):  RWF=     14 Int=      0 D2E=      0 Chk=      2 Scr=      1
 Normal termination of Gaussian 09 at Sat Jan 10 12:21:13 2015.
